V -t * -v 1.0a5 -a 0
A -t * -n 1 -p 0 -o 0x7fffffff -c 30 -a 1
A -t * -h 1 -m 1073741823 -s 0
n -t * -a 0 -s 0 -S UP -v circle -c black -i black
n -t * -a 1 -s 1 -S UP -v circle -c black -i black
n -t * -a 2 -s 2 -S UP -v circle -c black -i black
l -t * -s 0 -d 1 -S UP -r 3000000 -D 0.001 -c black
l -t * -s 2 -d 1 -S UP -r 1000000 -D 0.014999999999999999 -c black
+ -t 0 -s 0 -d 1 -p tcp -e 40 -c 1 -i 0 -a 1 -x {0.0 2.0 0 ------- null}
- -t 0 -s 0 -d 1 -p tcp -e 40 -c 1 -i 0 -a 1 -x {0.0 2.0 0 ------- null}
h -t 0 -s 0 -d 1 -p tcp -e 40 -c 1 -i 0 -a 1 -x {0.0 2.0 -1 ------- null}
r -t 0.00110666666666667 -s 0 -d 1 -p tcp -e 40 -c 1 -i 0 -a 1 -x {0.0 2.0 0 ------- null}
+ -t 0.00110666666666667 -s 1 -d 2 -p tcp -e 40 -c 1 -i 0 -a 1 -x {0.0 2.0 0 ------- null}
- -t 0.00110666666666667 -s 1 -d 2 -p tcp -e 40 -c 1 -i 0 -a 1 -x {0.0 2.0 0 ------- null}
h -t 0.00110666666666667 -s 1 -d 2 -p tcp -e 40 -c 1 -i 0 -a 1 -x {0.0 2.0 -1 ------- null}
r -t 0.0164266666666667 -s 1 -d 2 -p tcp -e 40 -c 1 -i 0 -a 1 -x {0.0 2.0 0 ------- null}
+ -t 0.0164266666666667 -s 2 -d 1 -p ack -e 40 -c 1 -i 1 -a 1 -x {2.0 0.0 0 ------- null}
- -t 0.0164266666666667 -s 2 -d 1 -p ack -e 40 -c 1 -i 1 -a 1 -x {2.0 0.0 0 ------- null}
h -t 0.0164266666666667 -s 2 -d 1 -p ack -e 40 -c 1 -i 1 -a 1 -x {2.0 0.0 -1 ------- null}
r -t 0.0317466666666667 -s 2 -d 1 -p ack -e 40 -c 1 -i 1 -a 1 -x {2.0 0.0 0 ------- null}
+ -t 0.0317466666666667 -s 1 -d 0 -p ack -e 40 -c 1 -i 1 -a 1 -x {2.0 0.0 0 ------- null}
- -t 0.0317466666666667 -s 1 -d 0 -p ack -e 40 -c 1 -i 1 -a 1 -x {2.0 0.0 0 ------- null}
h -t 0.0317466666666667 -s 1 -d 0 -p ack -e 40 -c 1 -i 1 -a 1 -x {2.0 0.0 -1 ------- null}
r -t 0.0328533333333333 -s 1 -d 0 -p ack -e 40 -c 1 -i 1 -a 1 -x {2.0 0.0 0 ------- null}
+ -t 0.0328533333333333 -s 0 -d 1 -p tcp -e 1040 -c 1 -i 2 -a 1 -x {0.0 2.0 1 ------- null}
- -t 0.0328533333333333 -s 0 -d 1 -p tcp -e 1040 -c 1 -i 2 -a 1 -x {0.0 2.0 1 ------- null}
h -t 0.0328533333333333 -s 0 -d 1 -p tcp -e 1040 -c 1 -i 2 -a 1 -x {0.0 2.0 -1 ------- null}
+ -t 0.0328533333333333 -s 0 -d 1 -p tcp -e 1040 -c 1 -i 3 -a 1 -x {0.0 2.0 2 ------- null}
- -t 0.0356266666666667 -s 0 -d 1 -p tcp -e 1040 -c 1 -i 3 -a 1 -x {0.0 2.0 2 ------- null}
h -t 0.0356266666666667 -s 0 -d 1 -p tcp -e 1040 -c 1 -i 3 -a 1 -x {0.0 2.0 -1 ------- null}
r -t 0.0366266666666667 -s 0 -d 1 -p tcp -e 1040 -c 1 -i 2 -a 1 -x {0.0 2.0 1 ------- null}
+ -t 0.0366266666666667 -s 1 -d 2 -p tcp -e 1040 -c 1 -i 2 -a 1 -x {0.0 2.0 1 ------- null}
- -t 0.0366266666666667 -s 1 -d 2 -p tcp -e 1040 -c 1 -i 2 -a 1 -x {0.0 2.0 1 ------- null}
h -t 0.0366266666666667 -s 1 -d 2 -p tcp -e 1040 -c 1 -i 2 -a 1 -x {0.0 2.0 -1 ------- null}
r -t 0.0394 -s 0 -d 1 -p tcp -e 1040 -c 1 -i 3 -a 1 -x {0.0 2.0 2 ------- null}
+ -t 0.0394 -s 1 -d 2 -p tcp -e 1040 -c 1 -i 3 -a 1 -x {0.0 2.0 2 ------- null}
- -t 0.0449466666666667 -s 1 -d 2 -p tcp -e 1040 -c 1 -i 3 -a 1 -x {0.0 2.0 2 ------- null}
h -t 0.0449466666666667 -s 1 -d 2 -p tcp -e 1040 -c 1 -i 3 -a 1 -x {0.0 2.0 -1 ------- null}
r -t 0.0599466666666667 -s 1 -d 2 -p tcp -e 1040 -c 1 -i 2 -a 1 -x {0.0 2.0 1 ------- null}
+ -t 0.0599466666666667 -s 2 -d 1 -p ack -e 40 -c 1 -i 4 -a 1 -x {2.0 0.0 1 ------- null}
- -t 0.0599466666666667 -s 2 -d 1 -p ack -e 40 -c 1 -i 4 -a 1 -x {2.0 0.0 1 ------- null}
h -t 0.0599466666666667 -s 2 -d 1 -p ack -e 40 -c 1 -i 4 -a 1 -x {2.0 0.0 -1 ------- null}
r -t 0.0682666666666667 -s 1 -d 2 -p tcp -e 1040 -c 1 -i 3 -a 1 -x {0.0 2.0 2 ------- null}
+ -t 0.0682666666666667 -s 2 -d 1 -p ack -e 40 -c 1 -i 5 -a 1 -x {2.0 0.0 2 ------- null}
- -t 0.0682666666666667 -s 2 -d 1 -p ack -e 40 -c 1 -i 5 -a 1 -x {2.0 0.0 2 ------- null}
h -t 0.0682666666666667 -s 2 -d 1 -p ack -e 40 -c 1 -i 5 -a 1 -x {2.0 0.0 -1 ------- null}
r -t 0.0752666666666667 -s 2 -d 1 -p ack -e 40 -c 1 -i 4 -a 1 -x {2.0 0.0 1 ------- null}
+ -t 0.0752666666666667 -s 1 -d 0 -p ack -e 40 -c 1 -i 4 -a 1 -x {2.0 0.0 1 ------- null}
- -t 0.0752666666666667 -s 1 -d 0 -p ack -e 40 -c 1 -i 4 -a 1 -x {2.0 0.0 1 ------- null}
h -t 0.0752666666666667 -s 1 -d 0 -p ack -e 40 -c 1 -i 4 -a 1 -x {2.0 0.0 -1 ------- null}
r -t 0.0763733333333333 -s 1 -d 0 -p ack -e 40 -c 1 -i 4 -a 1 -x {2.0 0.0 1 ------- null}
+ -t 0.0763733333333333 -s 0 -d 1 -p tcp -e 1040 -c 1 -i 6 -a 1 -x {0.0 2.0 3 ------- null}
- -t 0.0763733333333333 -s 0 -d 1 -p tcp -e 1040 -c 1 -i 6 -a 1 -x {0.0 2.0 3 ------- null}
h -t 0.0763733333333333 -s 0 -d 1 -p tcp -e 1040 -c 1 -i 6 -a 1 -x {0.0 2.0 -1 ------- null}
+ -t 0.0763733333333333 -s 0 -d 1 -p tcp -e 1040 -c 1 -i 7 -a 1 -x {0.0 2.0 4 ------- null}
- -t 0.0791466666666667 -s 0 -d 1 -p tcp -e 1040 -c 1 -i 7 -a 1 -x {0.0 2.0 4 ------- null}
h -t 0.0791466666666667 -s 0 -d 1 -p tcp -e 1040 -c 1 -i 7 -a 1 -x {0.0 2.0 -1 ------- null}
r -t 0.0801466666666667 -s 0 -d 1 -p tcp -e 1040 -c 1 -i 6 -a 1 -x {0.0 2.0 3 ------- null}
+ -t 0.0801466666666667 -s 1 -d 2 -p tcp -e 1040 -c 1 -i 6 -a 1 -x {0.0 2.0 3 ------- null}
- -t 0.0801466666666667 -s 1 -d 2 -p tcp -e 1040 -c 1 -i 6 -a 1 -x {0.0 2.0 3 ------- null}
h -t 0.0801466666666667 -s 1 -d 2 -p tcp -e 1040 -c 1 -i 6 -a 1 -x {0.0 2.0 -1 ------- null}
r -t 0.08292 -s 0 -d 1 -p tcp -e 1040 -c 1 -i 7 -a 1 -x {0.0 2.0 4 ------- null}
+ -t 0.08292 -s 1 -d 2 -p tcp -e 1040 -c 1 -i 7 -a 1 -x {0.0 2.0 4 ------- null}
r -t 0.0835866666666667 -s 2 -d 1 -p ack -e 40 -c 1 -i 5 -a 1 -x {2.0 0.0 2 ------- null}
+ -t 0.0835866666666667 -s 1 -d 0 -p ack -e 40 -c 1 -i 5 -a 1 -x {2.0 0.0 2 ------- null}
- -t 0.0835866666666667 -s 1 -d 0 -p ack -e 40 -c 1 -i 5 -a 1 -x {2.0 0.0 2 ------- null}
h -t 0.0835866666666667 -s 1 -d 0 -p ack -e 40 -c 1 -i 5 -a 1 -x {2.0 0.0 -1 ------- null}
r -t 0.0846933333333333 -s 1 -d 0 -p ack -e 40 -c 1 -i 5 -a 1 -x {2.0 0.0 2 ------- null}
+ -t 0.0846933333333333 -s 0 -d 1 -p tcp -e 1040 -c 1 -i 8 -a 1 -x {0.0 2.0 5 ------- null}
- -t 0.0846933333333333 -s 0 -d 1 -p tcp -e 1040 -c 1 -i 8 -a 1 -x {0.0 2.0 5 ------- null}
h -t 0.0846933333333333 -s 0 -d 1 -p tcp -e 1040 -c 1 -i 8 -a 1 -x {0.0 2.0 -1 ------- null}
+ -t 0.0846933333333333 -s 0 -d 1 -p tcp -e 1040 -c 1 -i 9 -a 1 -x {0.0 2.0 6 ------- null}
- -t 0.0874666666666667 -s 0 -d 1 -p tcp -e 1040 -c 1 -i 9 -a 1 -x {0.0 2.0 6 ------- null}
h -t 0.0874666666666667 -s 0 -d 1 -p tcp -e 1040 -c 1 -i 9 -a 1 -x {0.0 2.0 -1 ------- null}
- -t 0.0884666666666667 -s 1 -d 2 -p tcp -e 1040 -c 1 -i 7 -a 1 -x {0.0 2.0 4 ------- null}
h -t 0.0884666666666667 -s 1 -d 2 -p tcp -e 1040 -c 1 -i 7 -a 1 -x {0.0 2.0 -1 ------- null}
r -t 0.0884666666666667 -s 0 -d 1 -p tcp -e 1040 -c 1 -i 8 -a 1 -x {0.0 2.0 5 ------- null}
+ -t 0.0884666666666667 -s 1 -d 2 -p tcp -e 1040 -c 1 -i 8 -a 1 -x {0.0 2.0 5 ------- null}
r -t 0.09124 -s 0 -d 1 -p tcp -e 1040 -c 1 -i 9 -a 1 -x {0.0 2.0 6 ------- null}
+ -t 0.09124 -s 1 -d 2 -p tcp -e 1040 -c 1 -i 9 -a 1 -x {0.0 2.0 6 ------- null}
- -t 0.0967866666666667 -s 1 -d 2 -p tcp -e 1040 -c 1 -i 8 -a 1 -x {0.0 2.0 5 ------- null}
h -t 0.0967866666666667 -s 1 -d 2 -p tcp -e 1040 -c 1 -i 8 -a 1 -x {0.0 2.0 -1 ------- null}
r -t 0.103466666666667 -s 1 -d 2 -p tcp -e 1040 -c 1 -i 6 -a 1 -x {0.0 2.0 3 ------- null}
+ -t 0.103466666666667 -s 2 -d 1 -p ack -e 40 -c 1 -i 10 -a 1 -x {2.0 0.0 3 ------- null}
- -t 0.103466666666667 -s 2 -d 1 -p ack -e 40 -c 1 -i 10 -a 1 -x {2.0 0.0 3 ------- null}
h -t 0.103466666666667 -s 2 -d 1 -p ack -e 40 -c 1 -i 10 -a 1 -x {2.0 0.0 -1 ------- null}
- -t 0.105106666666667 -s 1 -d 2 -p tcp -e 1040 -c 1 -i 9 -a 1 -x {0.0 2.0 6 ------- null}
h -t 0.105106666666667 -s 1 -d 2 -p tcp -e 1040 -c 1 -i 9 -a 1 -x {0.0 2.0 -1 ------- null}
r -t 0.111786666666667 -s 1 -d 2 -p tcp -e 1040 -c 1 -i 7 -a 1 -x {0.0 2.0 4 ------- null}
+ -t 0.111786666666667 -s 2 -d 1 -p ack -e 40 -c 1 -i 11 -a 1 -x {2.0 0.0 4 ------- null}
- -t 0.111786666666667 -s 2 -d 1 -p ack -e 40 -c 1 -i 11 -a 1 -x {2.0 0.0 4 ------- null}
h -t 0.111786666666667 -s 2 -d 1 -p ack -e 40 -c 1 -i 11 -a 1 -x {2.0 0.0 -1 ------- null}
r -t 0.118786666666667 -s 2 -d 1 -p ack -e 40 -c 1 -i 10 -a 1 -x {2.0 0.0 3 ------- null}
+ -t 0.118786666666667 -s 1 -d 0 -p ack -e 40 -c 1 -i 10 -a 1 -x {2.0 0.0 3 ------- null}
- -t 0.118786666666667 -s 1 -d 0 -p ack -e 40 -c 1 -i 10 -a 1 -x {2.0 0.0 3 ------- null}
h -t 0.118786666666667 -s 1 -d 0 -p ack -e 40 -c 1 -i 10 -a 1 -x {2.0 0.0 -1 ------- null}
r -t 0.119893333333333 -s 1 -d 0 -p ack -e 40 -c 1 -i 10 -a 1 -x {2.0 0.0 3 ------- null}
+ -t 0.119893333333333 -s 0 -d 1 -p tcp -e 1040 -c 1 -i 12 -a 1 -x {0.0 2.0 7 ------- null}
- -t 0.119893333333333 -s 0 -d 1 -p tcp -e 1040 -c 1 -i 12 -a 1 -x {0.0 2.0 7 ------- null}
h -t 0.119893333333333 -s 0 -d 1 -p tcp -e 1040 -c 1 -i 12 -a 1 -x {0.0 2.0 -1 ------- null}
+ -t 0.119893333333333 -s 0 -d 1 -p tcp -e 1040 -c 1 -i 13 -a 1 -x {0.0 2.0 8 ------- null}
r -t 0.120106666666667 -s 1 -d 2 -p tcp -e 1040 -c 1 -i 8 -a 1 -x {0.0 2.0 5 ------- null}
+ -t 0.120106666666667 -s 2 -d 1 -p ack -e 40 -c 1 -i 14 -a 1 -x {2.0 0.0 5 ------- null}
- -t 0.120106666666667 -s 2 -d 1 -p ack -e 40 -c 1 -i 14 -a 1 -x {2.0 0.0 5 ------- null}
h -t 0.120106666666667 -s 2 -d 1 -p ack -e 40 -c 1 -i 14 -a 1 -x {2.0 0.0 -1 ------- null}
- -t 0.122666666666667 -s 0 -d 1 -p tcp -e 1040 -c 1 -i 13 -a 1 -x {0.0 2.0 8 ------- null}
h -t 0.122666666666667 -s 0 -d 1 -p tcp -e 1040 -c 1 -i 13 -a 1 -x {0.0 2.0 -1 ------- null}
r -t 0.123666666666667 -s 0 -d 1 -p tcp -e 1040 -c 1 -i 12 -a 1 -x {0.0 2.0 7 ------- null}
+ -t 0.123666666666667 -s 1 -d 2 -p tcp -e 1040 -c 1 -i 12 -a 1 -x {0.0 2.0 7 ------- null}
- -t 0.123666666666667 -s 1 -d 2 -p tcp -e 1040 -c 1 -i 12 -a 1 -x {0.0 2.0 7 ------- null}
h -t 0.123666666666667 -s 1 -d 2 -p tcp -e 1040 -c 1 -i 12 -a 1 -x {0.0 2.0 -1 ------- null}
r -t 0.12644 -s 0 -d 1 -p tcp -e 1040 -c 1 -i 13 -a 1 -x {0.0 2.0 8 ------- null}
+ -t 0.12644 -s 1 -d 2 -p tcp -e 1040 -c 1 -i 13 -a 1 -x {0.0 2.0 8 ------- null}
r -t 0.127106666666667 -s 2 -d 1 -p ack -e 40 -c 1 -i 11 -a 1 -x {2.0 0.0 4 ------- null}
+ -t 0.127106666666667 -s 1 -d 0 -p ack -e 40 -c 1 -i 11 -a 1 -x {2.0 0.0 4 ------- null}
- -t 0.127106666666667 -s 1 -d 0 -p ack -e 40 -c 1 -i 11 -a 1 -x {2.0 0.0 4 ------- null}
h -t 0.127106666666667 -s 1 -d 0 -p ack -e 40 -c 1 -i 11 -a 1 -x {2.0 0.0 -1 ------- null}
r -t 0.128213333333333 -s 1 -d 0 -p ack -e 40 -c 1 -i 11 -a 1 -x {2.0 0.0 4 ------- null}
+ -t 0.128213333333333 -s 0 -d 1 -p tcp -e 1040 -c 1 -i 15 -a 1 -x {0.0 2.0 9 ------- null}
- -t 0.128213333333333 -s 0 -d 1 -p tcp -e 1040 -c 1 -i 15 -a 1 -x {0.0 2.0 9 ------- null}
h -t 0.128213333333333 -s 0 -d 1 -p tcp -e 1040 -c 1 -i 15 -a 1 -x {0.0 2.0 -1 ------- null}
+ -t 0.128213333333333 -s 0 -d 1 -p tcp -e 1040 -c 1 -i 16 -a 1 -x {0.0 2.0 10 ------- null}
r -t 0.128426666666667 -s 1 -d 2 -p tcp -e 1040 -c 1 -i 9 -a 1 -x {0.0 2.0 6 ------- null}
+ -t 0.128426666666667 -s 2 -d 1 -p ack -e 40 -c 1 -i 17 -a 1 -x {2.0 0.0 6 ------- null}
- -t 0.128426666666667 -s 2 -d 1 -p ack -e 40 -c 1 -i 17 -a 1 -x {2.0 0.0 6 ------- null}
h -t 0.128426666666667 -s 2 -d 1 -p ack -e 40 -c 1 -i 17 -a 1 -x {2.0 0.0 -1 ------- null}
- -t 0.130986666666667 -s 0 -d 1 -p tcp -e 1040 -c 1 -i 16 -a 1 -x {0.0 2.0 10 ------- null}
h -t 0.130986666666667 -s 0 -d 1 -p tcp -e 1040 -c 1 -i 16 -a 1 -x {0.0 2.0 -1 ------- null}
r -t 0.131986666666667 -s 0 -d 1 -p tcp -e 1040 -c 1 -i 15 -a 1 -x {0.0 2.0 9 ------- null}
+ -t 0.131986666666667 -s 1 -d 2 -p tcp -e 1040 -c 1 -i 15 -a 1 -x {0.0 2.0 9 ------- null}
- -t 0.131986666666667 -s 1 -d 2 -p tcp -e 1040 -c 1 -i 13 -a 1 -x {0.0 2.0 8 ------- null}
h -t 0.131986666666667 -s 1 -d 2 -p tcp -e 1040 -c 1 -i 13 -a 1 -x {0.0 2.0 -1 ------- null}
r -t 0.13476 -s 0 -d 1 -p tcp -e 1040 -c 1 -i 16 -a 1 -x {0.0 2.0 10 ------- null}
+ -t 0.13476 -s 1 -d 2 -p tcp -e 1040 -c 1 -i 16 -a 1 -x {0.0 2.0 10 ------- null}
r -t 0.135426666666667 -s 2 -d 1 -p ack -e 40 -c 1 -i 14 -a 1 -x {2.0 0.0 5 ------- null}
+ -t 0.135426666666667 -s 1 -d 0 -p ack -e 40 -c 1 -i 14 -a 1 -x {2.0 0.0 5 ------- null}
- -t 0.135426666666667 -s 1 -d 0 -p ack -e 40 -c 1 -i 14 -a 1 -x {2.0 0.0 5 ------- null}
h -t 0.135426666666667 -s 1 -d 0 -p ack -e 40 -c 1 -i 14 -a 1 -x {2.0 0.0 -1 ------- null}
r -t 0.136533333333333 -s 1 -d 0 -p ack -e 40 -c 1 -i 14 -a 1 -x {2.0 0.0 5 ------- null}
+ -t 0.136533333333333 -s 0 -d 1 -p tcp -e 1040 -c 1 -i 18 -a 1 -x {0.0 2.0 11 ------- null}
- -t 0.136533333333333 -s 0 -d 1 -p tcp -e 1040 -c 1 -i 18 -a 1 -x {0.0 2.0 11 ------- null}
h -t 0.136533333333333 -s 0 -d 1 -p tcp -e 1040 -c 1 -i 18 -a 1 -x {0.0 2.0 -1 ------- null}
+ -t 0.136533333333333 -s 0 -d 1 -p tcp -e 1040 -c 1 -i 19 -a 1 -x {0.0 2.0 12 ------- null}
- -t 0.139306666666667 -s 0 -d 1 -p tcp -e 1040 -c 1 -i 19 -a 1 -x {0.0 2.0 12 ------- null}
h -t 0.139306666666667 -s 0 -d 1 -p tcp -e 1040 -c 1 -i 19 -a 1 -x {0.0 2.0 -1 ------- null}
r -t 0.140306666666667 -s 0 -d 1 -p tcp -e 1040 -c 1 -i 18 -a 1 -x {0.0 2.0 11 ------- null}
+ -t 0.140306666666667 -s 1 -d 2 -p tcp -e 1040 -c 1 -i 18 -a 1 -x {0.0 2.0 11 ------- null}
- -t 0.140306666666667 -s 1 -d 2 -p tcp -e 1040 -c 1 -i 15 -a 1 -x {0.0 2.0 9 ------- null}
h -t 0.140306666666667 -s 1 -d 2 -p tcp -e 1040 -c 1 -i 15 -a 1 -x {0.0 2.0 -1 ------- null}
r -t 0.14308 -s 0 -d 1 -p tcp -e 1040 -c 1 -i 19 -a 1 -x {0.0 2.0 12 ------- null}
+ -t 0.14308 -s 1 -d 2 -p tcp -e 1040 -c 1 -i 19 -a 1 -x {0.0 2.0 12 ------- null}
r -t 0.143746666666667 -s 2 -d 1 -p ack -e 40 -c 1 -i 17 -a 1 -x {2.0 0.0 6 ------- null}
+ -t 0.143746666666667 -s 1 -d 0 -p ack -e 40 -c 1 -i 17 -a 1 -x {2.0 0.0 6 ------- null}
- -t 0.143746666666667 -s 1 -d 0 -p ack -e 40 -c 1 -i 17 -a 1 -x {2.0 0.0 6 ------- null}
h -t 0.143746666666667 -s 1 -d 0 -p ack -e 40 -c 1 -i 17 -a 1 -x {2.0 0.0 -1 ------- null}
r -t 0.144853333333333 -s 1 -d 0 -p ack -e 40 -c 1 -i 17 -a 1 -x {2.0 0.0 6 ------- null}
+ -t 0.144853333333333 -s 0 -d 1 -p tcp -e 1040 -c 1 -i 20 -a 1 -x {0.0 2.0 13 ------- null}
- -t 0.144853333333333 -s 0 -d 1 -p tcp -e 1040 -c 1 -i 20 -a 1 -x {0.0 2.0 13 ------- null}
h -t 0.144853333333333 -s 0 -d 1 -p tcp -e 1040 -c 1 -i 20 -a 1 -x {0.0 2.0 -1 ------- null}
+ -t 0.144853333333333 -s 0 -d 1 -p tcp -e 1040 -c 1 -i 21 -a 1 -x {0.0 2.0 14 ------- null}
r -t 0.146986666666667 -s 1 -d 2 -p tcp -e 1040 -c 1 -i 12 -a 1 -x {0.0 2.0 7 ------- null}
+ -t 0.146986666666667 -s 2 -d 1 -p ack -e 40 -c 1 -i 22 -a 1 -x {2.0 0.0 7 ------- null}
- -t 0.146986666666667 -s 2 -d 1 -p ack -e 40 -c 1 -i 22 -a 1 -x {2.0 0.0 7 ------- null}
h -t 0.146986666666667 -s 2 -d 1 -p ack -e 40 -c 1 -i 22 -a 1 -x {2.0 0.0 -1 ------- null}
- -t 0.147626666666667 -s 0 -d 1 -p tcp -e 1040 -c 1 -i 21 -a 1 -x {0.0 2.0 14 ------- null}
h -t 0.147626666666667 -s 0 -d 1 -p tcp -e 1040 -c 1 -i 21 -a 1 -x {0.0 2.0 -1 ------- null}
r -t 0.148626666666667 -s 0 -d 1 -p tcp -e 1040 -c 1 -i 20 -a 1 -x {0.0 2.0 13 ------- null}
+ -t 0.148626666666667 -s 1 -d 2 -p tcp -e 1040 -c 1 -i 20 -a 1 -x {0.0 2.0 13 ------- null}
- -t 0.148626666666667 -s 1 -d 2 -p tcp -e 1040 -c 1 -i 16 -a 1 -x {0.0 2.0 10 ------- null}
h -t 0.148626666666667 -s 1 -d 2 -p tcp -e 1040 -c 1 -i 16 -a 1 -x {0.0 2.0 -1 ------- null}
r -t 0.1514 -s 0 -d 1 -p tcp -e 1040 -c 1 -i 21 -a 1 -x {0.0 2.0 14 ------- null}
+ -t 0.1514 -s 1 -d 2 -p tcp -e 1040 -c 1 -i 21 -a 1 -x {0.0 2.0 14 ------- null}
r -t 0.155306666666667 -s 1 -d 2 -p tcp -e 1040 -c 1 -i 13 -a 1 -x {0.0 2.0 8 ------- null}
+ -t 0.155306666666667 -s 2 -d 1 -p ack -e 40 -c 1 -i 23 -a 1 -x {2.0 0.0 8 ------- null}
- -t 0.155306666666667 -s 2 -d 1 -p ack -e 40 -c 1 -i 23 -a 1 -x {2.0 0.0 8 ------- null}
h -t 0.155306666666667 -s 2 -d 1 -p ack -e 40 -c 1 -i 23 -a 1 -x {2.0 0.0 -1 ------- null}
- -t 0.156946666666667 -s 1 -d 2 -p tcp -e 1040 -c 1 -i 18 -a 1 -x {0.0 2.0 11 ------- null}
h -t 0.156946666666667 -s 1 -d 2 -p tcp -e 1040 -c 1 -i 18 -a 1 -x {0.0 2.0 -1 ------- null}
r -t 0.162306666666667 -s 2 -d 1 -p ack -e 40 -c 1 -i 22 -a 1 -x {2.0 0.0 7 ------- null}
+ -t 0.162306666666667 -s 1 -d 0 -p ack -e 40 -c 1 -i 22 -a 1 -x {2.0 0.0 7 ------- null}
- -t 0.162306666666667 -s 1 -d 0 -p ack -e 40 -c 1 -i 22 -a 1 -x {2.0 0.0 7 ------- null}
h -t 0.162306666666667 -s 1 -d 0 -p ack -e 40 -c 1 -i 22 -a 1 -x {2.0 0.0 -1 ------- null}
r -t 0.163413333333333 -s 1 -d 0 -p ack -e 40 -c 1 -i 22 -a 1 -x {2.0 0.0 7 ------- null}
+ -t 0.163413333333333 -s 0 -d 1 -p tcp -e 1040 -c 1 -i 24 -a 1 -x {0.0 2.0 15 ------- null}
- -t 0.163413333333333 -s 0 -d 1 -p tcp -e 1040 -c 1 -i 24 -a 1 -x {0.0 2.0 15 ------- null}
h -t 0.163413333333333 -s 0 -d 1 -p tcp -e 1040 -c 1 -i 24 -a 1 -x {0.0 2.0 -1 ------- null}
+ -t 0.163413333333333 -s 0 -d 1 -p tcp -e 1040 -c 1 -i 25 -a 1 -x {0.0 2.0 16 ------- null}
r -t 0.163626666666667 -s 1 -d 2 -p tcp -e 1040 -c 1 -i 15 -a 1 -x {0.0 2.0 9 ------- null}
+ -t 0.163626666666667 -s 2 -d 1 -p ack -e 40 -c 1 -i 26 -a 1 -x {2.0 0.0 9 ------- null}
- -t 0.163626666666667 -s 2 -d 1 -p ack -e 40 -c 1 -i 26 -a 1 -x {2.0 0.0 9 ------- null}
h -t 0.163626666666667 -s 2 -d 1 -p ack -e 40 -c 1 -i 26 -a 1 -x {2.0 0.0 -1 ------- null}
- -t 0.165266666666667 -s 1 -d 2 -p tcp -e 1040 -c 1 -i 19 -a 1 -x {0.0 2.0 12 ------- null}
h -t 0.165266666666667 -s 1 -d 2 -p tcp -e 1040 -c 1 -i 19 -a 1 -x {0.0 2.0 -1 ------- null}
- -t 0.166186666666667 -s 0 -d 1 -p tcp -e 1040 -c 1 -i 25 -a 1 -x {0.0 2.0 16 ------- null}
h -t 0.166186666666667 -s 0 -d 1 -p tcp -e 1040 -c 1 -i 25 -a 1 -x {0.0 2.0 -1 ------- null}
r -t 0.167186666666667 -s 0 -d 1 -p tcp -e 1040 -c 1 -i 24 -a 1 -x {0.0 2.0 15 ------- null}
+ -t 0.167186666666667 -s 1 -d 2 -p tcp -e 1040 -c 1 -i 24 -a 1 -x {0.0 2.0 15 ------- null}
r -t 0.16996 -s 0 -d 1 -p tcp -e 1040 -c 1 -i 25 -a 1 -x {0.0 2.0 16 ------- null}
+ -t 0.16996 -s 1 -d 2 -p tcp -e 1040 -c 1 -i 25 -a 1 -x {0.0 2.0 16 ------- null}
r -t 0.170626666666667 -s 2 -d 1 -p ack -e 40 -c 1 -i 23 -a 1 -x {2.0 0.0 8 ------- null}
+ -t 0.170626666666667 -s 1 -d 0 -p ack -e 40 -c 1 -i 23 -a 1 -x {2.0 0.0 8 ------- null}
- -t 0.170626666666667 -s 1 -d 0 -p ack -e 40 -c 1 -i 23 -a 1 -x {2.0 0.0 8 ------- null}
h -t 0.170626666666667 -s 1 -d 0 -p ack -e 40 -c 1 -i 23 -a 1 -x {2.0 0.0 -1 ------- null}
r -t 0.171733333333333 -s 1 -d 0 -p ack -e 40 -c 1 -i 23 -a 1 -x {2.0 0.0 8 ------- null}
+ -t 0.171733333333333 -s 0 -d 1 -p tcp -e 1040 -c 1 -i 27 -a 1 -x {0.0 2.0 17 ------- null}
- -t 0.171733333333333 -s 0 -d 1 -p tcp -e 1040 -c 1 -i 27 -a 1 -x {0.0 2.0 17 ------- null}
h -t 0.171733333333333 -s 0 -d 1 -p tcp -e 1040 -c 1 -i 27 -a 1 -x {0.0 2.0 -1 ------- null}
+ -t 0.171733333333333 -s 0 -d 1 -p tcp -e 1040 -c 1 -i 28 -a 1 -x {0.0 2.0 18 ------- null}
r -t 0.171946666666667 -s 1 -d 2 -p tcp -e 1040 -c 1 -i 16 -a 1 -x {0.0 2.0 10 ------- null}
+ -t 0.171946666666667 -s 2 -d 1 -p ack -e 40 -c 1 -i 29 -a 1 -x {2.0 0.0 10 ------- null}
- -t 0.171946666666667 -s 2 -d 1 -p ack -e 40 -c 1 -i 29 -a 1 -x {2.0 0.0 10 ------- null}
h -t 0.171946666666667 -s 2 -d 1 -p ack -e 40 -c 1 -i 29 -a 1 -x {2.0 0.0 -1 ------- null}
- -t 0.173586666666667 -s 1 -d 2 -p tcp -e 1040 -c 1 -i 20 -a 1 -x {0.0 2.0 13 ------- null}
h -t 0.173586666666667 -s 1 -d 2 -p tcp -e 1040 -c 1 -i 20 -a 1 -x {0.0 2.0 -1 ------- null}
- -t 0.174506666666667 -s 0 -d 1 -p tcp -e 1040 -c 1 -i 28 -a 1 -x {0.0 2.0 18 ------- null}
h -t 0.174506666666667 -s 0 -d 1 -p tcp -e 1040 -c 1 -i 28 -a 1 -x {0.0 2.0 -1 ------- null}
r -t 0.175506666666667 -s 0 -d 1 -p tcp -e 1040 -c 1 -i 27 -a 1 -x {0.0 2.0 17 ------- null}
+ -t 0.175506666666667 -s 1 -d 2 -p tcp -e 1040 -c 1 -i 27 -a 1 -x {0.0 2.0 17 ------- null}
r -t 0.17828 -s 0 -d 1 -p tcp -e 1040 -c 1 -i 28 -a 1 -x {0.0 2.0 18 ------- null}
+ -t 0.17828 -s 1 -d 2 -p tcp -e 1040 -c 1 -i 28 -a 1 -x {0.0 2.0 18 ------- null}
r -t 0.178946666666667 -s 2 -d 1 -p ack -e 40 -c 1 -i 26 -a 1 -x {2.0 0.0 9 ------- null}
+ -t 0.178946666666667 -s 1 -d 0 -p ack -e 40 -c 1 -i 26 -a 1 -x {2.0 0.0 9 ------- null}
- -t 0.178946666666667 -s 1 -d 0 -p ack -e 40 -c 1 -i 26 -a 1 -x {2.0 0.0 9 ------- null}
h -t 0.178946666666667 -s 1 -d 0 -p ack -e 40 -c 1 -i 26 -a 1 -x {2.0 0.0 -1 ------- null}
r -t 0.180053333333333 -s 1 -d 0 -p ack -e 40 -c 1 -i 26 -a 1 -x {2.0 0.0 9 ------- null}
+ -t 0.180053333333333 -s 0 -d 1 -p tcp -e 1040 -c 1 -i 30 -a 1 -x {0.0 2.0 19 ------- null}
- -t 0.180053333333333 -s 0 -d 1 -p tcp -e 1040 -c 1 -i 30 -a 1 -x {0.0 2.0 19 ------- null}
h -t 0.180053333333333 -s 0 -d 1 -p tcp -e 1040 -c 1 -i 30 -a 1 -x {0.0 2.0 -1 ------- null}
+ -t 0.180053333333333 -s 0 -d 1 -p tcp -e 1040 -c 1 -i 31 -a 1 -x {0.0 2.0 20 ------- null}
r -t 0.180266666666667 -s 1 -d 2 -p tcp -e 1040 -c 1 -i 18 -a 1 -x {0.0 2.0 11 ------- null}
+ -t 0.180266666666667 -s 2 -d 1 -p ack -e 40 -c 1 -i 32 -a 1 -x {2.0 0.0 11 ------- null}
- -t 0.180266666666667 -s 2 -d 1 -p ack -e 40 -c 1 -i 32 -a 1 -x {2.0 0.0 11 ------- null}
h -t 0.180266666666667 -s 2 -d 1 -p ack -e 40 -c 1 -i 32 -a 1 -x {2.0 0.0 -1 ------- null}
- -t 0.181906666666667 -s 1 -d 2 -p tcp -e 1040 -c 1 -i 21 -a 1 -x {0.0 2.0 14 ------- null}
h -t 0.181906666666667 -s 1 -d 2 -p tcp -e 1040 -c 1 -i 21 -a 1 -x {0.0 2.0 -1 ------- null}
- -t 0.182826666666667 -s 0 -d 1 -p tcp -e 1040 -c 1 -i 31 -a 1 -x {0.0 2.0 20 ------- null}
h -t 0.182826666666667 -s 0 -d 1 -p tcp -e 1040 -c 1 -i 31 -a 1 -x {0.0 2.0 -1 ------- null}
r -t 0.183826666666667 -s 0 -d 1 -p tcp -e 1040 -c 1 -i 30 -a 1 -x {0.0 2.0 19 ------- null}
+ -t 0.183826666666667 -s 1 -d 2 -p tcp -e 1040 -c 1 -i 30 -a 1 -x {0.0 2.0 19 ------- null}
r -t 0.1866 -s 0 -d 1 -p tcp -e 1040 -c 1 -i 31 -a 1 -x {0.0 2.0 20 ------- null}
+ -t 0.1866 -s 1 -d 2 -p tcp -e 1040 -c 1 -i 31 -a 1 -x {0.0 2.0 20 ------- null}
r -t 0.187266666666667 -s 2 -d 1 -p ack -e 40 -c 1 -i 29 -a 1 -x {2.0 0.0 10 ------- null}
+ -t 0.187266666666667 -s 1 -d 0 -p ack -e 40 -c 1 -i 29 -a 1 -x {2.0 0.0 10 ------- null}
- -t 0.187266666666667 -s 1 -d 0 -p ack -e 40 -c 1 -i 29 -a 1 -x {2.0 0.0 10 ------- null}
h -t 0.187266666666667 -s 1 -d 0 -p ack -e 40 -c 1 -i 29 -a 1 -x {2.0 0.0 -1 ------- null}
r -t 0.188373333333333 -s 1 -d 0 -p ack -e 40 -c 1 -i 29 -a 1 -x {2.0 0.0 10 ------- null}
+ -t 0.188373333333333 -s 0 -d 1 -p tcp -e 1040 -c 1 -i 33 -a 1 -x {0.0 2.0 21 ------- null}
- -t 0.188373333333333 -s 0 -d 1 -p tcp -e 1040 -c 1 -i 33 -a 1 -x {0.0 2.0 21 ------- null}
h -t 0.188373333333333 -s 0 -d 1 -p tcp -e 1040 -c 1 -i 33 -a 1 -x {0.0 2.0 -1 ------- null}
+ -t 0.188373333333333 -s 0 -d 1 -p tcp -e 1040 -c 1 -i 34 -a 1 -x {0.0 2.0 22 ------- null}
r -t 0.188586666666667 -s 1 -d 2 -p tcp -e 1040 -c 1 -i 19 -a 1 -x {0.0 2.0 12 ------- null}
+ -t 0.188586666666667 -s 2 -d 1 -p ack -e 40 -c 1 -i 35 -a 1 -x {2.0 0.0 12 ------- null}
- -t 0.188586666666667 -s 2 -d 1 -p ack -e 40 -c 1 -i 35 -a 1 -x {2.0 0.0 12 ------- null}
h -t 0.188586666666667 -s 2 -d 1 -p ack -e 40 -c 1 -i 35 -a 1 -x {2.0 0.0 -1 ------- null}
- -t 0.190226666666667 -s 1 -d 2 -p tcp -e 1040 -c 1 -i 24 -a 1 -x {0.0 2.0 15 ------- null}
h -t 0.190226666666667 -s 1 -d 2 -p tcp -e 1040 -c 1 -i 24 -a 1 -x {0.0 2.0 -1 ------- null}
- -t 0.191146666666667 -s 0 -d 1 -p tcp -e 1040 -c 1 -i 34 -a 1 -x {0.0 2.0 22 ------- null}
h -t 0.191146666666667 -s 0 -d 1 -p tcp -e 1040 -c 1 -i 34 -a 1 -x {0.0 2.0 -1 ------- null}
r -t 0.192146666666667 -s 0 -d 1 -p tcp -e 1040 -c 1 -i 33 -a 1 -x {0.0 2.0 21 ------- null}
+ -t 0.192146666666667 -s 1 -d 2 -p tcp -e 1040 -c 1 -i 33 -a 1 -x {0.0 2.0 21 ------- null}
r -t 0.19492 -s 0 -d 1 -p tcp -e 1040 -c 1 -i 34 -a 1 -x {0.0 2.0 22 ------- null}
+ -t 0.19492 -s 1 -d 2 -p tcp -e 1040 -c 1 -i 34 -a 1 -x {0.0 2.0 22 ------- null}
r -t 0.195586666666667 -s 2 -d 1 -p ack -e 40 -c 1 -i 32 -a 1 -x {2.0 0.0 11 ------- null}
+ -t 0.195586666666667 -s 1 -d 0 -p ack -e 40 -c 1 -i 32 -a 1 -x {2.0 0.0 11 ------- null}
- -t 0.195586666666667 -s 1 -d 0 -p ack -e 40 -c 1 -i 32 -a 1 -x {2.0 0.0 11 ------- null}
h -t 0.195586666666667 -s 1 -d 0 -p ack -e 40 -c 1 -i 32 -a 1 -x {2.0 0.0 -1 ------- null}
r -t 0.196693333333333 -s 1 -d 0 -p ack -e 40 -c 1 -i 32 -a 1 -x {2.0 0.0 11 ------- null}
+ -t 0.196693333333333 -s 0 -d 1 -p tcp -e 1040 -c 1 -i 36 -a 1 -x {0.0 2.0 23 ------- null}
- -t 0.196693333333333 -s 0 -d 1 -p tcp -e 1040 -c 1 -i 36 -a 1 -x {0.0 2.0 23 ------- null}
h -t 0.196693333333333 -s 0 -d 1 -p tcp -e 1040 -c 1 -i 36 -a 1 -x {0.0 2.0 -1 ------- null}
+ -t 0.196693333333333 -s 0 -d 1 -p tcp -e 1040 -c 1 -i 37 -a 1 -x {0.0 2.0 24 ------- null}
r -t 0.196906666666667 -s 1 -d 2 -p tcp -e 1040 -c 1 -i 20 -a 1 -x {0.0 2.0 13 ------- null}
+ -t 0.196906666666667 -s 2 -d 1 -p ack -e 40 -c 1 -i 38 -a 1 -x {2.0 0.0 13 ------- null}
- -t 0.196906666666667 -s 2 -d 1 -p ack -e 40 -c 1 -i 38 -a 1 -x {2.0 0.0 13 ------- null}
h -t 0.196906666666667 -s 2 -d 1 -p ack -e 40 -c 1 -i 38 -a 1 -x {2.0 0.0 -1 ------- null}
- -t 0.198546666666667 -s 1 -d 2 -p tcp -e 1040 -c 1 -i 25 -a 1 -x {0.0 2.0 16 ------- null}
h -t 0.198546666666667 -s 1 -d 2 -p tcp -e 1040 -c 1 -i 25 -a 1 -x {0.0 2.0 -1 ------- null}
- -t 0.199466666666667 -s 0 -d 1 -p tcp -e 1040 -c 1 -i 37 -a 1 -x {0.0 2.0 24 ------- null}
h -t 0.199466666666667 -s 0 -d 1 -p tcp -e 1040 -c 1 -i 37 -a 1 -x {0.0 2.0 -1 ------- null}
r -t 0.200466666666667 -s 0 -d 1 -p tcp -e 1040 -c 1 -i 36 -a 1 -x {0.0 2.0 23 ------- null}
+ -t 0.200466666666667 -s 1 -d 2 -p tcp -e 1040 -c 1 -i 36 -a 1 -x {0.0 2.0 23 ------- null}
r -t 0.20324 -s 0 -d 1 -p tcp -e 1040 -c 1 -i 37 -a 1 -x {0.0 2.0 24 ------- null}
+ -t 0.20324 -s 1 -d 2 -p tcp -e 1040 -c 1 -i 37 -a 1 -x {0.0 2.0 24 ------- null}
r -t 0.203906666666667 -s 2 -d 1 -p ack -e 40 -c 1 -i 35 -a 1 -x {2.0 0.0 12 ------- null}
+ -t 0.203906666666667 -s 1 -d 0 -p ack -e 40 -c 1 -i 35 -a 1 -x {2.0 0.0 12 ------- null}
- -t 0.203906666666667 -s 1 -d 0 -p ack -e 40 -c 1 -i 35 -a 1 -x {2.0 0.0 12 ------- null}
h -t 0.203906666666667 -s 1 -d 0 -p ack -e 40 -c 1 -i 35 -a 1 -x {2.0 0.0 -1 ------- null}
r -t 0.205013333333333 -s 1 -d 0 -p ack -e 40 -c 1 -i 35 -a 1 -x {2.0 0.0 12 ------- null}
+ -t 0.205013333333333 -s 0 -d 1 -p tcp -e 1040 -c 1 -i 39 -a 1 -x {0.0 2.0 25 ------- null}
- -t 0.205013333333333 -s 0 -d 1 -p tcp -e 1040 -c 1 -i 39 -a 1 -x {0.0 2.0 25 ------- null}
h -t 0.205013333333333 -s 0 -d 1 -p tcp -e 1040 -c 1 -i 39 -a 1 -x {0.0 2.0 -1 ------- null}
+ -t 0.205013333333333 -s 0 -d 1 -p tcp -e 1040 -c 1 -i 40 -a 1 -x {0.0 2.0 26 ------- null}
r -t 0.205226666666667 -s 1 -d 2 -p tcp -e 1040 -c 1 -i 21 -a 1 -x {0.0 2.0 14 ------- null}
+ -t 0.205226666666667 -s 2 -d 1 -p ack -e 40 -c 1 -i 41 -a 1 -x {2.0 0.0 14 ------- null}
- -t 0.205226666666667 -s 2 -d 1 -p ack -e 40 -c 1 -i 41 -a 1 -x {2.0 0.0 14 ------- null}
h -t 0.205226666666667 -s 2 -d 1 -p ack -e 40 -c 1 -i 41 -a 1 -x {2.0 0.0 -1 ------- null}
- -t 0.206866666666667 -s 1 -d 2 -p tcp -e 1040 -c 1 -i 27 -a 1 -x {0.0 2.0 17 ------- null}
h -t 0.206866666666667 -s 1 -d 2 -p tcp -e 1040 -c 1 -i 27 -a 1 -x {0.0 2.0 -1 ------- null}
- -t 0.207786666666667 -s 0 -d 1 -p tcp -e 1040 -c 1 -i 40 -a 1 -x {0.0 2.0 26 ------- null}
h -t 0.207786666666667 -s 0 -d 1 -p tcp -e 1040 -c 1 -i 40 -a 1 -x {0.0 2.0 -1 ------- null}
r -t 0.208786666666667 -s 0 -d 1 -p tcp -e 1040 -c 1 -i 39 -a 1 -x {0.0 2.0 25 ------- null}
+ -t 0.208786666666667 -s 1 -d 2 -p tcp -e 1040 -c 1 -i 39 -a 1 -x {0.0 2.0 25 ------- null}
r -t 0.21156 -s 0 -d 1 -p tcp -e 1040 -c 1 -i 40 -a 1 -x {0.0 2.0 26 ------- null}
+ -t 0.21156 -s 1 -d 2 -p tcp -e 1040 -c 1 -i 40 -a 1 -x {0.0 2.0 26 ------- null}
r -t 0.212226666666667 -s 2 -d 1 -p ack -e 40 -c 1 -i 38 -a 1 -x {2.0 0.0 13 ------- null}
+ -t 0.212226666666667 -s 1 -d 0 -p ack -e 40 -c 1 -i 38 -a 1 -x {2.0 0.0 13 ------- null}
- -t 0.212226666666667 -s 1 -d 0 -p ack -e 40 -c 1 -i 38 -a 1 -x {2.0 0.0 13 ------- null}
h -t 0.212226666666667 -s 1 -d 0 -p ack -e 40 -c 1 -i 38 -a 1 -x {2.0 0.0 -1 ------- null}
r -t 0.213333333333333 -s 1 -d 0 -p ack -e 40 -c 1 -i 38 -a 1 -x {2.0 0.0 13 ------- null}
+ -t 0.213333333333333 -s 0 -d 1 -p tcp -e 1040 -c 1 -i 42 -a 1 -x {0.0 2.0 27 ------- null}
- -t 0.213333333333333 -s 0 -d 1 -p tcp -e 1040 -c 1 -i 42 -a 1 -x {0.0 2.0 27 ------- null}
h -t 0.213333333333333 -s 0 -d 1 -p tcp -e 1040 -c 1 -i 42 -a 1 -x {0.0 2.0 -1 ------- null}
+ -t 0.213333333333333 -s 0 -d 1 -p tcp -e 1040 -c 1 -i 43 -a 1 -x {0.0 2.0 28 ------- null}
r -t 0.213546666666667 -s 1 -d 2 -p tcp -e 1040 -c 1 -i 24 -a 1 -x {0.0 2.0 15 ------- null}
+ -t 0.213546666666667 -s 2 -d 1 -p ack -e 40 -c 1 -i 44 -a 1 -x {2.0 0.0 15 ------- null}
- -t 0.213546666666667 -s 2 -d 1 -p ack -e 40 -c 1 -i 44 -a 1 -x {2.0 0.0 15 ------- null}
h -t 0.213546666666667 -s 2 -d 1 -p ack -e 40 -c 1 -i 44 -a 1 -x {2.0 0.0 -1 ------- null}
- -t 0.215186666666667 -s 1 -d 2 -p tcp -e 1040 -c 1 -i 28 -a 1 -x {0.0 2.0 18 ------- null}
h -t 0.215186666666667 -s 1 -d 2 -p tcp -e 1040 -c 1 -i 28 -a 1 -x {0.0 2.0 -1 ------- null}
- -t 0.216106666666667 -s 0 -d 1 -p tcp -e 1040 -c 1 -i 43 -a 1 -x {0.0 2.0 28 ------- null}
h -t 0.216106666666667 -s 0 -d 1 -p tcp -e 1040 -c 1 -i 43 -a 1 -x {0.0 2.0 -1 ------- null}
r -t 0.217106666666667 -s 0 -d 1 -p tcp -e 1040 -c 1 -i 42 -a 1 -x {0.0 2.0 27 ------- null}
+ -t 0.217106666666667 -s 1 -d 2 -p tcp -e 1040 -c 1 -i 42 -a 1 -x {0.0 2.0 27 ------- null}
r -t 0.21988 -s 0 -d 1 -p tcp -e 1040 -c 1 -i 43 -a 1 -x {0.0 2.0 28 ------- null}
+ -t 0.21988 -s 1 -d 2 -p tcp -e 1040 -c 1 -i 43 -a 1 -x {0.0 2.0 28 ------- null}
r -t 0.220546666666667 -s 2 -d 1 -p ack -e 40 -c 1 -i 41 -a 1 -x {2.0 0.0 14 ------- null}
+ -t 0.220546666666667 -s 1 -d 0 -p ack -e 40 -c 1 -i 41 -a 1 -x {2.0 0.0 14 ------- null}
- -t 0.220546666666667 -s 1 -d 0 -p ack -e 40 -c 1 -i 41 -a 1 -x {2.0 0.0 14 ------- null}
h -t 0.220546666666667 -s 1 -d 0 -p ack -e 40 -c 1 -i 41 -a 1 -x {2.0 0.0 -1 ------- null}
r -t 0.221653333333333 -s 1 -d 0 -p ack -e 40 -c 1 -i 41 -a 1 -x {2.0 0.0 14 ------- null}
+ -t 0.221653333333333 -s 0 -d 1 -p tcp -e 1040 -c 1 -i 45 -a 1 -x {0.0 2.0 29 ------- null}
- -t 0.221653333333333 -s 0 -d 1 -p tcp -e 1040 -c 1 -i 45 -a 1 -x {0.0 2.0 29 ------- null}
h -t 0.221653333333333 -s 0 -d 1 -p tcp -e 1040 -c 1 -i 45 -a 1 -x {0.0 2.0 -1 ------- null}
+ -t 0.221653333333333 -s 0 -d 1 -p tcp -e 1040 -c 1 -i 46 -a 1 -x {0.0 2.0 30 ------- null}