+ 0.1 1 2 cbr 1000 ------- 2 1.0 3.1 0 0
- 0.1 1 2 cbr 1000 ------- 2 1.0 3.1 0 0
+ 0.108 1 2 cbr 1000 ------- 2 1.0 3.1 1 1
- 0.108 1 2 cbr 1000 ------- 2 1.0 3.1 1 1
r 0.114 1 2 cbr 1000 ------- 2 1.0 3.1 0 0
+ 0.116 1 2 cbr 1000 ------- 2 1.0 3.1 2 2
- 0.116 1 2 cbr 1000 ------- 2 1.0 3.1 2 2
r 0.122 1 2 cbr 1000 ------- 2 1.0 3.1 1 1
+ 0.124 1 2 cbr 1000 ------- 2 1.0 3.1 3 3
- 0.124 1 2 cbr 1000 ------- 2 1.0 3.1 3 3
r 0.13 1 2 cbr 1000 ------- 2 1.0 3.1 2 2
+ 0.132 1 2 cbr 1000 ------- 2 1.0 3.1 4 4
- 0.132 1 2 cbr 1000 ------- 2 1.0 3.1 4 4
r 0.138 1 2 cbr 1000 ------- 2 1.0 3.1 3 3
+ 0.14 1 2 cbr 1000 ------- 2 1.0 3.1 5 5
- 0.14 1 2 cbr 1000 ------- 2 1.0 3.1 5 5
r 0.146 1 2 cbr 1000 ------- 2 1.0 3.1 4 4
+ 0.148 1 2 cbr 1000 ------- 2 1.0 3.1 6 6
- 0.148 1 2 cbr 1000 ------- 2 1.0 3.1 6 6
r 0.154 1 2 cbr 1000 ------- 2 1.0 3.1 5 5
+ 0.156 1 2 cbr 1000 ------- 2 1.0 3.1 7 7
- 0.156 1 2 cbr 1000 ------- 2 1.0 3.1 7 7
r 0.162 1 2 cbr 1000 ------- 2 1.0 3.1 6 6
+ 0.164 1 2 cbr 1000 ------- 2 1.0 3.1 8 8
- 0.164 1 2 cbr 1000 ------- 2 1.0 3.1 8 8
r 0.17 1 2 cbr 1000 ------- 2 1.0 3.1 7 7
+ 0.172 1 2 cbr 1000 ------- 2 1.0 3.1 9 9
- 0.172 1 2 cbr 1000 ------- 2 1.0 3.1 9 9
r 0.178 1 2 cbr 1000 ------- 2 1.0 3.1 8 8
+ 0.18 1 2 cbr 1000 ------- 2 1.0 3.1 10 10
- 0.18 1 2 cbr 1000 ------- 2 1.0 3.1 10 10
r 0.186 1 2 cbr 1000 ------- 2 1.0 3.1 9 9
+ 0.188 1 2 cbr 1000 ------- 2 1.0 3.1 11 11
- 0.188 1 2 cbr 1000 ------- 2 1.0 3.1 11 11
r 0.194 1 2 cbr 1000 ------- 2 1.0 3.1 10 10
+ 0.196 1 2 cbr 1000 ------- 2 1.0 3.1 12 12
- 0.196 1 2 cbr 1000 ------- 2 1.0 3.1 12 12
r 0.202 1 2 cbr 1000 ------- 2 1.0 3.1 11 11
+ 0.204 1 2 cbr 1000 ------- 2 1.0 3.1 13 13
- 0.204 1 2 cbr 1000 ------- 2 1.0 3.1 13 13
r 0.21 1 2 cbr 1000 ------- 2 1.0 3.1 12 12
+ 0.212 1 2 cbr 1000 ------- 2 1.0 3.1 14 14
- 0.212 1 2 cbr 1000 ------- 2 1.0 3.1 14 14
r 0.218 1 2 cbr 1000 ------- 2 1.0 3.1 13 13
+ 0.22 1 2 cbr 1000 ------- 2 1.0 3.1 15 15
- 0.22 1 2 cbr 1000 ------- 2 1.0 3.1 15 15
r 0.226 1 2 cbr 1000 ------- 2 1.0 3.1 14 14
+ 0.228 1 2 cbr 1000 ------- 2 1.0 3.1 16 16
- 0.228 1 2 cbr 1000 ------- 2 1.0 3.1 16 16
r 0.234 1 2 cbr 1000 ------- 2 1.0 3.1 15 15
+ 0.236 1 2 cbr 1000 ------- 2 1.0 3.1 17 17
- 0.236 1 2 cbr 1000 ------- 2 1.0 3.1 17 17
r 0.242 1 2 cbr 1000 ------- 2 1.0 3.1 16 16
+ 0.244 1 2 cbr 1000 ------- 2 1.0 3.1 18 18
- 0.244 1 2 cbr 1000 ------- 2 1.0 3.1 18 18
r 0.25 1 2 cbr 1000 ------- 2 1.0 3.1 17 17
+ 0.252 1 2 cbr 1000 ------- 2 1.0 3.1 19 19
- 0.252 1 2 cbr 1000 ------- 2 1.0 3.1 19 19
r 0.258 1 2 cbr 1000 ------- 2 1.0 3.1 18 18
+ 0.26 1 2 cbr 1000 ------- 2 1.0 3.1 20 20
- 0.26 1 2 cbr 1000 ------- 2 1.0 3.1 20 20
r 0.266 1 2 cbr 1000 ------- 2 1.0 3.1 19 19
+ 0.268 1 2 cbr 1000 ------- 2 1.0 3.1 21 21
- 0.268 1 2 cbr 1000 ------- 2 1.0 3.1 21 21
r 0.274 1 2 cbr 1000 ------- 2 1.0 3.1 20 20
+ 0.276 1 2 cbr 1000 ------- 2 1.0 3.1 22 22
- 0.276 1 2 cbr 1000 ------- 2 1.0 3.1 22 22
r 0.282 1 2 cbr 1000 ------- 2 1.0 3.1 21 21
+ 0.284 1 2 cbr 1000 ------- 2 1.0 3.1 23 23
- 0.284 1 2 cbr 1000 ------- 2 1.0 3.1 23 23
r 0.29 1 2 cbr 1000 ------- 2 1.0 3.1 22 22
+ 0.292 1 2 cbr 1000 ------- 2 1.0 3.1 24 24
- 0.292 1 2 cbr 1000 ------- 2 1.0 3.1 24 24
r 0.298 1 2 cbr 1000 ------- 2 1.0 3.1 23 23
+ 0.3 1 2 cbr 1000 ------- 2 1.0 3.1 25 25
- 0.3 1 2 cbr 1000 ------- 2 1.0 3.1 25 25
r 0.306 1 2 cbr 1000 ------- 2 1.0 3.1 24 24
+ 0.308 1 2 cbr 1000 ------- 2 1.0 3.1 26 26
- 0.308 1 2 cbr 1000 ------- 2 1.0 3.1 26 26
r 0.314 1 2 cbr 1000 ------- 2 1.0 3.1 25 25
+ 0.316 1 2 cbr 1000 ------- 2 1.0 3.1 27 27
- 0.316 1 2 cbr 1000 ------- 2 1.0 3.1 27 27
r 0.322 1 2 cbr 1000 ------- 2 1.0 3.1 26 26
+ 0.324 1 2 cbr 1000 ------- 2 1.0 3.1 28 28
- 0.324 1 2 cbr 1000 ------- 2 1.0 3.1 28 28
r 0.33 1 2 cbr 1000 ------- 2 1.0 3.1 27 27
+ 0.332 1 2 cbr 1000 ------- 2 1.0 3.1 29 29
- 0.332 1 2 cbr 1000 ------- 2 1.0 3.1 29 29
r 0.338 1 2 cbr 1000 ------- 2 1.0 3.1 28 28
+ 0.34 1 2 cbr 1000 ------- 2 1.0 3.1 30 30
- 0.34 1 2 cbr 1000 ------- 2 1.0 3.1 30 30
r 0.346 1 2 cbr 1000 ------- 2 1.0 3.1 29 29
+ 0.348 1 2 cbr 1000 ------- 2 1.0 3.1 31 31
- 0.348 1 2 cbr 1000 ------- 2 1.0 3.1 31 31
r 0.354 1 2 cbr 1000 ------- 2 1.0 3.1 30 30
+ 0.356 1 2 cbr 1000 ------- 2 1.0 3.1 32 32
- 0.356 1 2 cbr 1000 ------- 2 1.0 3.1 32 32
r 0.362 1 2 cbr 1000 ------- 2 1.0 3.1 31 31
+ 0.364 1 2 cbr 1000 ------- 2 1.0 3.1 33 33
- 0.364 1 2 cbr 1000 ------- 2 1.0 3.1 33 33
r 0.37 1 2 cbr 1000 ------- 2 1.0 3.1 32 32
+ 0.372 1 2 cbr 1000 ------- 2 1.0 3.1 34 34
- 0.372 1 2 cbr 1000 ------- 2 1.0 3.1 34 34
r 0.378 1 2 cbr 1000 ------- 2 1.0 3.1 33 33
+ 0.38 1 2 cbr 1000 ------- 2 1.0 3.1 35 35
- 0.38 1 2 cbr 1000 ------- 2 1.0 3.1 35 35
r 0.386 1 2 cbr 1000 ------- 2 1.0 3.1 34 34
+ 0.388 1 2 cbr 1000 ------- 2 1.0 3.1 36 36
- 0.388 1 2 cbr 1000 ------- 2 1.0 3.1 36 36
r 0.394 1 2 cbr 1000 ------- 2 1.0 3.1 35 35
+ 0.396 1 2 cbr 1000 ------- 2 1.0 3.1 37 37
- 0.396 1 2 cbr 1000 ------- 2 1.0 3.1 37 37
r 0.402 1 2 cbr 1000 ------- 2 1.0 3.1 36 36
+ 0.404 1 2 cbr 1000 ------- 2 1.0 3.1 38 38
- 0.404 1 2 cbr 1000 ------- 2 1.0 3.1 38 38
r 0.41 1 2 cbr 1000 ------- 2 1.0 3.1 37 37
+ 0.412 1 2 cbr 1000 ------- 2 1.0 3.1 39 39
- 0.412 1 2 cbr 1000 ------- 2 1.0 3.1 39 39
r 0.418 1 2 cbr 1000 ------- 2 1.0 3.1 38 38
+ 0.42 1 2 cbr 1000 ------- 2 1.0 3.1 40 40
- 0.42 1 2 cbr 1000 ------- 2 1.0 3.1 40 40
r 0.426 1 2 cbr 1000 ------- 2 1.0 3.1 39 39
+ 0.428 1 2 cbr 1000 ------- 2 1.0 3.1 41 41
- 0.428 1 2 cbr 1000 ------- 2 1.0 3.1 41 41
r 0.434 1 2 cbr 1000 ------- 2 1.0 3.1 40 40
+ 0.436 1 2 cbr 1000 ------- 2 1.0 3.1 42 42
- 0.436 1 2 cbr 1000 ------- 2 1.0 3.1 42 42
r 0.442 1 2 cbr 1000 ------- 2 1.0 3.1 41 41
+ 0.444 1 2 cbr 1000 ------- 2 1.0 3.1 43 43
- 0.444 1 2 cbr 1000 ------- 2 1.0 3.1 43 43
r 0.45 1 2 cbr 1000 ------- 2 1.0 3.1 42 42
+ 0.452 1 2 cbr 1000 ------- 2 1.0 3.1 44 44
- 0.452 1 2 cbr 1000 ------- 2 1.0 3.1 44 44
r 0.458 1 2 cbr 1000 ------- 2 1.0 3.1 43 43
+ 0.46 1 2 cbr 1000 ------- 2 1.0 3.1 45 45
- 0.46 1 2 cbr 1000 ------- 2 1.0 3.1 45 45
r 0.466 1 2 cbr 1000 ------- 2 1.0 3.1 44 44
+ 0.468 1 2 cbr 1000 ------- 2 1.0 3.1 46 46
- 0.468 1 2 cbr 1000 ------- 2 1.0 3.1 46 46
r 0.474 1 2 cbr 1000 ------- 2 1.0 3.1 45 45
+ 0.476 1 2 cbr 1000 ------- 2 1.0 3.1 47 47
- 0.476 1 2 cbr 1000 ------- 2 1.0 3.1 47 47
r 0.482 1 2 cbr 1000 ------- 2 1.0 3.1 46 46
+ 0.484 1 2 cbr 1000 ------- 2 1.0 3.1 48 48
- 0.484 1 2 cbr 1000 ------- 2 1.0 3.1 48 48
r 0.49 1 2 cbr 1000 ------- 2 1.0 3.1 47 47
+ 0.492 1 2 cbr 1000 ------- 2 1.0 3.1 49 49
- 0.492 1 2 cbr 1000 ------- 2 1.0 3.1 49 49
r 0.498 1 2 cbr 1000 ------- 2 1.0 3.1 48 48
+ 0.5 1 2 cbr 1000 ------- 2 1.0 3.1 50 50
- 0.5 1 2 cbr 1000 ------- 2 1.0 3.1 50 50
r 0.506 1 2 cbr 1000 ------- 2 1.0 3.1 49 49
+ 0.508 1 2 cbr 1000 ------- 2 1.0 3.1 51 51
- 0.508 1 2 cbr 1000 ------- 2 1.0 3.1 51 51
r 0.514 1 2 cbr 1000 ------- 2 1.0 3.1 50 50
+ 0.516 1 2 cbr 1000 ------- 2 1.0 3.1 52 52
- 0.516 1 2 cbr 1000 ------- 2 1.0 3.1 52 52
r 0.522 1 2 cbr 1000 ------- 2 1.0 3.1 51 51
+ 0.524 1 2 cbr 1000 ------- 2 1.0 3.1 53 53
- 0.524 1 2 cbr 1000 ------- 2 1.0 3.1 53 53
r 0.53 1 2 cbr 1000 ------- 2 1.0 3.1 52 52
+ 0.532 1 2 cbr 1000 ------- 2 1.0 3.1 54 54
- 0.532 1 2 cbr 1000 ------- 2 1.0 3.1 54 54
r 0.538 1 2 cbr 1000 ------- 2 1.0 3.1 53 53
+ 0.54 1 2 cbr 1000 ------- 2 1.0 3.1 55 55
- 0.54 1 2 cbr 1000 ------- 2 1.0 3.1 55 55
r 0.546 1 2 cbr 1000 ------- 2 1.0 3.1 54 54
+ 0.548 1 2 cbr 1000 ------- 2 1.0 3.1 56 56
- 0.548 1 2 cbr 1000 ------- 2 1.0 3.1 56 56
r 0.554 1 2 cbr 1000 ------- 2 1.0 3.1 55 55
+ 0.556 1 2 cbr 1000 ------- 2 1.0 3.1 57 57
- 0.556 1 2 cbr 1000 ------- 2 1.0 3.1 57 57
r 0.562 1 2 cbr 1000 ------- 2 1.0 3.1 56 56
+ 0.564 1 2 cbr 1000 ------- 2 1.0 3.1 58 58
- 0.564 1 2 cbr 1000 ------- 2 1.0 3.1 58 58
r 0.57 1 2 cbr 1000 ------- 2 1.0 3.1 57 57
+ 0.572 1 2 cbr 1000 ------- 2 1.0 3.1 59 59
- 0.572 1 2 cbr 1000 ------- 2 1.0 3.1 59 59
r 0.578 1 2 cbr 1000 ------- 2 1.0 3.1 58 58
+ 0.58 1 2 cbr 1000 ------- 2 1.0 3.1 60 60
- 0.58 1 2 cbr 1000 ------- 2 1.0 3.1 60 60
r 0.586 1 2 cbr 1000 ------- 2 1.0 3.1 59 59
+ 0.588 1 2 cbr 1000 ------- 2 1.0 3.1 61 61
- 0.588 1 2 cbr 1000 ------- 2 1.0 3.1 61 61
r 0.594 1 2 cbr 1000 ------- 2 1.0 3.1 60 60
+ 0.596 1 2 cbr 1000 ------- 2 1.0 3.1 62 62
- 0.596 1 2 cbr 1000 ------- 2 1.0 3.1 62 62
r 0.602 1 2 cbr 1000 ------- 2 1.0 3.1 61 61
+ 0.604 1 2 cbr 1000 ------- 2 1.0 3.1 63 63
- 0.604 1 2 cbr 1000 ------- 2 1.0 3.1 63 63
r 0.61 1 2 cbr 1000 ------- 2 1.0 3.1 62 62
+ 0.612 1 2 cbr 1000 ------- 2 1.0 3.1 64 64
- 0.612 1 2 cbr 1000 ------- 2 1.0 3.1 64 64
r 0.618 1 2 cbr 1000 ------- 2 1.0 3.1 63 63
+ 0.62 1 2 cbr 1000 ------- 2 1.0 3.1 65 65
- 0.62 1 2 cbr 1000 ------- 2 1.0 3.1 65 65
r 0.626 1 2 cbr 1000 ------- 2 1.0 3.1 64 64
+ 0.628 1 2 cbr 1000 ------- 2 1.0 3.1 66 66
- 0.628 1 2 cbr 1000 ------- 2 1.0 3.1 66 66
r 0.634 1 2 cbr 1000 ------- 2 1.0 3.1 65 65
+ 0.636 1 2 cbr 1000 ------- 2 1.0 3.1 67 67
- 0.636 1 2 cbr 1000 ------- 2 1.0 3.1 67 67
r 0.642 1 2 cbr 1000 ------- 2 1.0 3.1 66 66
+ 0.644 1 2 cbr 1000 ------- 2 1.0 3.1 68 68
- 0.644 1 2 cbr 1000 ------- 2 1.0 3.1 68 68
r 0.65 1 2 cbr 1000 ------- 2 1.0 3.1 67 67
+ 0.652 1 2 cbr 1000 ------- 2 1.0 3.1 69 69
- 0.652 1 2 cbr 1000 ------- 2 1.0 3.1 69 69
r 0.658 1 2 cbr 1000 ------- 2 1.0 3.1 68 68
+ 0.66 1 2 cbr 1000 ------- 2 1.0 3.1 70 70
- 0.66 1 2 cbr 1000 ------- 2 1.0 3.1 70 70
r 0.666 1 2 cbr 1000 ------- 2 1.0 3.1 69 69
+ 0.668 1 2 cbr 1000 ------- 2 1.0 3.1 71 71
- 0.668 1 2 cbr 1000 ------- 2 1.0 3.1 71 71
r 0.674 1 2 cbr 1000 ------- 2 1.0 3.1 70 70
+ 0.676 1 2 cbr 1000 ------- 2 1.0 3.1 72 72
- 0.676 1 2 cbr 1000 ------- 2 1.0 3.1 72 72
r 0.682 1 2 cbr 1000 ------- 2 1.0 3.1 71 71
+ 0.684 1 2 cbr 1000 ------- 2 1.0 3.1 73 73
- 0.684 1 2 cbr 1000 ------- 2 1.0 3.1 73 73
r 0.69 1 2 cbr 1000 ------- 2 1.0 3.1 72 72
+ 0.692 1 2 cbr 1000 ------- 2 1.0 3.1 74 74
- 0.692 1 2 cbr 1000 ------- 2 1.0 3.1 74 74
r 0.698 1 2 cbr 1000 ------- 2 1.0 3.1 73 73
+ 0.7 1 2 cbr 1000 ------- 2 1.0 3.1 75 75
- 0.7 1 2 cbr 1000 ------- 2 1.0 3.1 75 75
r 0.706 1 2 cbr 1000 ------- 2 1.0 3.1 74 74
+ 0.708 1 2 cbr 1000 ------- 2 1.0 3.1 76 76
- 0.708 1 2 cbr 1000 ------- 2 1.0 3.1 76 76
r 0.714 1 2 cbr 1000 ------- 2 1.0 3.1 75 75
+ 0.716 1 2 cbr 1000 ------- 2 1.0 3.1 77 77
- 0.716 1 2 cbr 1000 ------- 2 1.0 3.1 77 77
r 0.722 1 2 cbr 1000 ------- 2 1.0 3.1 76 76
+ 0.724 1 2 cbr 1000 ------- 2 1.0 3.1 78 78
- 0.724 1 2 cbr 1000 ------- 2 1.0 3.1 78 78
r 0.73 1 2 cbr 1000 ------- 2 1.0 3.1 77 77
+ 0.732 1 2 cbr 1000 ------- 2 1.0 3.1 79 79
- 0.732 1 2 cbr 1000 ------- 2 1.0 3.1 79 79
r 0.738 1 2 cbr 1000 ------- 2 1.0 3.1 78 78
+ 0.74 1 2 cbr 1000 ------- 2 1.0 3.1 80 80
- 0.74 1 2 cbr 1000 ------- 2 1.0 3.1 80 80
r 0.746 1 2 cbr 1000 ------- 2 1.0 3.1 79 79
+ 0.748 1 2 cbr 1000 ------- 2 1.0 3.1 81 81
- 0.748 1 2 cbr 1000 ------- 2 1.0 3.1 81 81
r 0.754 1 2 cbr 1000 ------- 2 1.0 3.1 80 80
+ 0.756 1 2 cbr 1000 ------- 2 1.0 3.1 82 82
- 0.756 1 2 cbr 1000 ------- 2 1.0 3.1 82 82
r 0.762 1 2 cbr 1000 ------- 2 1.0 3.1 81 81
+ 0.764 1 2 cbr 1000 ------- 2 1.0 3.1 83 83
- 0.764 1 2 cbr 1000 ------- 2 1.0 3.1 83 83
r 0.77 1 2 cbr 1000 ------- 2 1.0 3.1 82 82
+ 0.772 1 2 cbr 1000 ------- 2 1.0 3.1 84 84
- 0.772 1 2 cbr 1000 ------- 2 1.0 3.1 84 84
r 0.778 1 2 cbr 1000 ------- 2 1.0 3.1 83 83
+ 0.78 1 2 cbr 1000 ------- 2 1.0 3.1 85 85
- 0.78 1 2 cbr 1000 ------- 2 1.0 3.1 85 85
r 0.786 1 2 cbr 1000 ------- 2 1.0 3.1 84 84
+ 0.788 1 2 cbr 1000 ------- 2 1.0 3.1 86 86
- 0.788 1 2 cbr 1000 ------- 2 1.0 3.1 86 86
r 0.794 1 2 cbr 1000 ------- 2 1.0 3.1 85 85
+ 0.796 1 2 cbr 1000 ------- 2 1.0 3.1 87 87
- 0.796 1 2 cbr 1000 ------- 2 1.0 3.1 87 87
r 0.802 1 2 cbr 1000 ------- 2 1.0 3.1 86 86
+ 0.804 1 2 cbr 1000 ------- 2 1.0 3.1 88 88
- 0.804 1 2 cbr 1000 ------- 2 1.0 3.1 88 88
r 0.81 1 2 cbr 1000 ------- 2 1.0 3.1 87 87
+ 0.812 1 2 cbr 1000 ------- 2 1.0 3.1 89 89
- 0.812 1 2 cbr 1000 ------- 2 1.0 3.1 89 89
r 0.818 1 2 cbr 1000 ------- 2 1.0 3.1 88 88
+ 0.82 1 2 cbr 1000 ------- 2 1.0 3.1 90 90
- 0.82 1 2 cbr 1000 ------- 2 1.0 3.1 90 90
r 0.826 1 2 cbr 1000 ------- 2 1.0 3.1 89 89
+ 0.828 1 2 cbr 1000 ------- 2 1.0 3.1 91 91
- 0.828 1 2 cbr 1000 ------- 2 1.0 3.1 91 91
r 0.834 1 2 cbr 1000 ------- 2 1.0 3.1 90 90
+ 0.836 1 2 cbr 1000 ------- 2 1.0 3.1 92 92
- 0.836 1 2 cbr 1000 ------- 2 1.0 3.1 92 92
r 0.842 1 2 cbr 1000 ------- 2 1.0 3.1 91 91
+ 0.844 1 2 cbr 1000 ------- 2 1.0 3.1 93 93
- 0.844 1 2 cbr 1000 ------- 2 1.0 3.1 93 93
r 0.85 1 2 cbr 1000 ------- 2 1.0 3.1 92 92
+ 0.852 1 2 cbr 1000 ------- 2 1.0 3.1 94 94
- 0.852 1 2 cbr 1000 ------- 2 1.0 3.1 94 94
r 0.858 1 2 cbr 1000 ------- 2 1.0 3.1 93 93
+ 0.86 1 2 cbr 1000 ------- 2 1.0 3.1 95 95
- 0.86 1 2 cbr 1000 ------- 2 1.0 3.1 95 95
r 0.866 1 2 cbr 1000 ------- 2 1.0 3.1 94 94
+ 0.868 1 2 cbr 1000 ------- 2 1.0 3.1 96 96
- 0.868 1 2 cbr 1000 ------- 2 1.0 3.1 96 96
r 0.874 1 2 cbr 1000 ------- 2 1.0 3.1 95 95
+ 0.876 1 2 cbr 1000 ------- 2 1.0 3.1 97 97
- 0.876 1 2 cbr 1000 ------- 2 1.0 3.1 97 97
r 0.882 1 2 cbr 1000 ------- 2 1.0 3.1 96 96
+ 0.884 1 2 cbr 1000 ------- 2 1.0 3.1 98 98
- 0.884 1 2 cbr 1000 ------- 2 1.0 3.1 98 98
r 0.89 1 2 cbr 1000 ------- 2 1.0 3.1 97 97
+ 0.892 1 2 cbr 1000 ------- 2 1.0 3.1 99 99
- 0.892 1 2 cbr 1000 ------- 2 1.0 3.1 99 99
r 0.898 1 2 cbr 1000 ------- 2 1.0 3.1 98 98
+ 0.9 1 2 cbr 1000 ------- 2 1.0 3.1 100 100
- 0.9 1 2 cbr 1000 ------- 2 1.0 3.1 100 100
r 0.906 1 2 cbr 1000 ------- 2 1.0 3.1 99 99
+ 0.908 1 2 cbr 1000 ------- 2 1.0 3.1 101 101
- 0.908 1 2 cbr 1000 ------- 2 1.0 3.1 101 101
r 0.914 1 2 cbr 1000 ------- 2 1.0 3.1 100 100
+ 0.916 1 2 cbr 1000 ------- 2 1.0 3.1 102 102
- 0.916 1 2 cbr 1000 ------- 2 1.0 3.1 102 102
r 0.922 1 2 cbr 1000 ------- 2 1.0 3.1 101 101
+ 0.924 1 2 cbr 1000 ------- 2 1.0 3.1 103 103
- 0.924 1 2 cbr 1000 ------- 2 1.0 3.1 103 103
r 0.93 1 2 cbr 1000 ------- 2 1.0 3.1 102 102
+ 0.932 1 2 cbr 1000 ------- 2 1.0 3.1 104 104
- 0.932 1 2 cbr 1000 ------- 2 1.0 3.1 104 104
r 0.938 1 2 cbr 1000 ------- 2 1.0 3.1 103 103
+ 0.94 1 2 cbr 1000 ------- 2 1.0 3.1 105 105
- 0.94 1 2 cbr 1000 ------- 2 1.0 3.1 105 105
r 0.946 1 2 cbr 1000 ------- 2 1.0 3.1 104 104
+ 0.948 1 2 cbr 1000 ------- 2 1.0 3.1 106 106
- 0.948 1 2 cbr 1000 ------- 2 1.0 3.1 106 106
r 0.954 1 2 cbr 1000 ------- 2 1.0 3.1 105 105
+ 0.956 1 2 cbr 1000 ------- 2 1.0 3.1 107 107
- 0.956 1 2 cbr 1000 ------- 2 1.0 3.1 107 107
r 0.962 1 2 cbr 1000 ------- 2 1.0 3.1 106 106
+ 0.964 1 2 cbr 1000 ------- 2 1.0 3.1 108 108
- 0.964 1 2 cbr 1000 ------- 2 1.0 3.1 108 108
r 0.97 1 2 cbr 1000 ------- 2 1.0 3.1 107 107
+ 0.972 1 2 cbr 1000 ------- 2 1.0 3.1 109 109
- 0.972 1 2 cbr 1000 ------- 2 1.0 3.1 109 109
r 0.978 1 2 cbr 1000 ------- 2 1.0 3.1 108 108
+ 0.98 1 2 cbr 1000 ------- 2 1.0 3.1 110 110
- 0.98 1 2 cbr 1000 ------- 2 1.0 3.1 110 110
r 0.986 1 2 cbr 1000 ------- 2 1.0 3.1 109 109
+ 0.988 1 2 cbr 1000 ------- 2 1.0 3.1 111 111
- 0.988 1 2 cbr 1000 ------- 2 1.0 3.1 111 111
r 0.994 1 2 cbr 1000 ------- 2 1.0 3.1 110 110
+ 0.996 1 2 cbr 1000 ------- 2 1.0 3.1 112 112
- 0.996 1 2 cbr 1000 ------- 2 1.0 3.1 112 112
r 1.002 1 2 cbr 1000 ------- 2 1.0 3.1 111 111
+ 1.004 1 2 cbr 1000 ------- 2 1.0 3.1 113 114
- 1.004 1 2 cbr 1000 ------- 2 1.0 3.1 113 114
r 1.01 1 2 cbr 1000 ------- 2 1.0 3.1 112 112
+ 1.012 1 2 cbr 1000 ------- 2 1.0 3.1 114 115
- 1.012 1 2 cbr 1000 ------- 2 1.0 3.1 114 115
r 1.018 1 2 cbr 1000 ------- 2 1.0 3.1 113 114
+ 1.02 1 2 cbr 1000 ------- 2 1.0 3.1 115 116
- 1.02 1 2 cbr 1000 ------- 2 1.0 3.1 115 116
r 1.026 1 2 cbr 1000 ------- 2 1.0 3.1 114 115
+ 1.028 1 2 cbr 1000 ------- 2 1.0 3.1 116 117
- 1.028 1 2 cbr 1000 ------- 2 1.0 3.1 116 117
r 1.034 1 2 cbr 1000 ------- 2 1.0 3.1 115 116
+ 1.036 1 2 cbr 1000 ------- 2 1.0 3.1 117 119
- 1.036 1 2 cbr 1000 ------- 2 1.0 3.1 117 119
r 1.042 1 2 cbr 1000 ------- 2 1.0 3.1 116 117
+ 1.044 1 2 cbr 1000 ------- 2 1.0 3.1 118 120
- 1.044 1 2 cbr 1000 ------- 2 1.0 3.1 118 120
r 1.05 1 2 cbr 1000 ------- 2 1.0 3.1 117 119
+ 1.052 1 2 cbr 1000 ------- 2 1.0 3.1 119 121
- 1.052 1 2 cbr 1000 ------- 2 1.0 3.1 119 121
r 1.058 1 2 cbr 1000 ------- 2 1.0 3.1 118 120
+ 1.06 1 2 cbr 1000 ------- 2 1.0 3.1 120 122
- 1.06 1 2 cbr 1000 ------- 2 1.0 3.1 120 122
r 1.066 1 2 cbr 1000 ------- 2 1.0 3.1 119 121
+ 1.068 1 2 cbr 1000 ------- 2 1.0 3.1 121 125
- 1.068 1 2 cbr 1000 ------- 2 1.0 3.1 121 125
r 1.074 1 2 cbr 1000 ------- 2 1.0 3.1 120 122
+ 1.076 1 2 cbr 1000 ------- 2 1.0 3.1 122 126
- 1.076 1 2 cbr 1000 ------- 2 1.0 3.1 122 126
r 1.082 1 2 cbr 1000 ------- 2 1.0 3.1 121 125
+ 1.084 1 2 cbr 1000 ------- 2 1.0 3.1 123 127
- 1.084 1 2 cbr 1000 ------- 2 1.0 3.1 123 127
r 1.09 1 2 cbr 1000 ------- 2 1.0 3.1 122 126
+ 1.092 1 2 cbr 1000 ------- 2 1.0 3.1 124 128
- 1.092 1 2 cbr 1000 ------- 2 1.0 3.1 124 128
r 1.098 1 2 cbr 1000 ------- 2 1.0 3.1 123 127
+ 1.1 1 2 cbr 1000 ------- 2 1.0 3.1 125 129
- 1.1 1 2 cbr 1000 ------- 2 1.0 3.1 125 129
r 1.106 1 2 cbr 1000 ------- 2 1.0 3.1 124 128
+ 1.108 1 2 cbr 1000 ------- 2 1.0 3.1 126 131
- 1.108 1 2 cbr 1000 ------- 2 1.0 3.1 126 131
r 1.114 1 2 cbr 1000 ------- 2 1.0 3.1 125 129
+ 1.116 1 2 cbr 1000 ------- 2 1.0 3.1 127 133
- 1.116 1 2 cbr 1000 ------- 2 1.0 3.1 127 133
r 1.122 1 2 cbr 1000 ------- 2 1.0 3.1 126 131
+ 1.124 1 2 cbr 1000 ------- 2 1.0 3.1 128 134
- 1.124 1 2 cbr 1000 ------- 2 1.0 3.1 128 134
r 1.13 1 2 cbr 1000 ------- 2 1.0 3.1 127 133
+ 1.132 1 2 cbr 1000 ------- 2 1.0 3.1 129 135
- 1.132 1 2 cbr 1000 ------- 2 1.0 3.1 129 135
r 1.138 1 2 cbr 1000 ------- 2 1.0 3.1 128 134
+ 1.14 1 2 cbr 1000 ------- 2 1.0 3.1 130 138
- 1.14 1 2 cbr 1000 ------- 2 1.0 3.1 130 138
r 1.146 1 2 cbr 1000 ------- 2 1.0 3.1 129 135
+ 1.148 1 2 cbr 1000 ------- 2 1.0 3.1 131 141
- 1.148 1 2 cbr 1000 ------- 2 1.0 3.1 131 141
r 1.154 1 2 cbr 1000 ------- 2 1.0 3.1 130 138
+ 1.156 1 2 cbr 1000 ------- 2 1.0 3.1 132 142
- 1.156 1 2 cbr 1000 ------- 2 1.0 3.1 132 142
r 1.162 1 2 cbr 1000 ------- 2 1.0 3.1 131 141
+ 1.164 1 2 cbr 1000 ------- 2 1.0 3.1 133 143
- 1.164 1 2 cbr 1000 ------- 2 1.0 3.1 133 143
r 1.17 1 2 cbr 1000 ------- 2 1.0 3.1 132 142
+ 1.172 1 2 cbr 1000 ------- 2 1.0 3.1 134 144
- 1.172 1 2 cbr 1000 ------- 2 1.0 3.1 134 144
r 1.178 1 2 cbr 1000 ------- 2 1.0 3.1 133 143
+ 1.18 1 2 cbr 1000 ------- 2 1.0 3.1 135 146
- 1.18 1 2 cbr 1000 ------- 2 1.0 3.1 135 146
r 1.186 1 2 cbr 1000 ------- 2 1.0 3.1 134 144
+ 1.188 1 2 cbr 1000 ------- 2 1.0 3.1 136 148
- 1.188 1 2 cbr 1000 ------- 2 1.0 3.1 136 148
r 1.194 1 2 cbr 1000 ------- 2 1.0 3.1 135 146
+ 1.196 1 2 cbr 1000 ------- 2 1.0 3.1 137 150
- 1.196 1 2 cbr 1000 ------- 2 1.0 3.1 137 150
r 1.202 1 2 cbr 1000 ------- 2 1.0 3.1 136 148
+ 1.204 1 2 cbr 1000 ------- 2 1.0 3.1 138 151
- 1.204 1 2 cbr 1000 ------- 2 1.0 3.1 138 151
r 1.21 1 2 cbr 1000 ------- 2 1.0 3.1 137 150
+ 1.212 1 2 cbr 1000 ------- 2 1.0 3.1 139 154
- 1.212 1 2 cbr 1000 ------- 2 1.0 3.1 139 154
r 1.218 1 2 cbr 1000 ------- 2 1.0 3.1 138 151
+ 1.22 1 2 cbr 1000 ------- 2 1.0 3.1 140 156
- 1.22 1 2 cbr 1000 ------- 2 1.0 3.1 140 156
r 1.226 1 2 cbr 1000 ------- 2 1.0 3.1 139 154
+ 1.228 1 2 cbr 1000 ------- 2 1.0 3.1 141 158
- 1.228 1 2 cbr 1000 ------- 2 1.0 3.1 141 158
r 1.234 1 2 cbr 1000 ------- 2 1.0 3.1 140 156
+ 1.236 1 2 cbr 1000 ------- 2 1.0 3.1 142 159
- 1.236 1 2 cbr 1000 ------- 2 1.0 3.1 142 159
r 1.242 1 2 cbr 1000 ------- 2 1.0 3.1 141 158
+ 1.244 1 2 cbr 1000 ------- 2 1.0 3.1 143 160
- 1.244 1 2 cbr 1000 ------- 2 1.0 3.1 143 160
r 1.25 1 2 cbr 1000 ------- 2 1.0 3.1 142 159
+ 1.252 1 2 cbr 1000 ------- 2 1.0 3.1 144 162
- 1.252 1 2 cbr 1000 ------- 2 1.0 3.1 144 162
r 1.258 1 2 cbr 1000 ------- 2 1.0 3.1 143 160
+ 1.26 1 2 cbr 1000 ------- 2 1.0 3.1 145 164
- 1.26 1 2 cbr 1000 ------- 2 1.0 3.1 145 164
r 1.266 1 2 cbr 1000 ------- 2 1.0 3.1 144 162
+ 1.268 1 2 cbr 1000 ------- 2 1.0 3.1 146 167
- 1.268 1 2 cbr 1000 ------- 2 1.0 3.1 146 167
r 1.274 1 2 cbr 1000 ------- 2 1.0 3.1 145 164
+ 1.276 1 2 cbr 1000 ------- 2 1.0 3.1 147 168
- 1.276 1 2 cbr 1000 ------- 2 1.0 3.1 147 168
r 1.282 1 2 cbr 1000 ------- 2 1.0 3.1 146 167
+ 1.284 1 2 cbr 1000 ------- 2 1.0 3.1 148 170
- 1.284 1 2 cbr 1000 ------- 2 1.0 3.1 148 170
r 1.29 1 2 cbr 1000 ------- 2 1.0 3.1 147 168
+ 1.292 1 2 cbr 1000 ------- 2 1.0 3.1 149 171
- 1.292 1 2 cbr 1000 ------- 2 1.0 3.1 149 171
r 1.298 1 2 cbr 1000 ------- 2 1.0 3.1 148 170
+ 1.3 1 2 cbr 1000 ------- 2 1.0 3.1 150 172
- 1.3 1 2 cbr 1000 ------- 2 1.0 3.1 150 172
r 1.306 1 2 cbr 1000 ------- 2 1.0 3.1 149 171
+ 1.308 1 2 cbr 1000 ------- 2 1.0 3.1 151 173
- 1.308 1 2 cbr 1000 ------- 2 1.0 3.1 151 173
r 1.314 1 2 cbr 1000 ------- 2 1.0 3.1 150 172
+ 1.316 1 2 cbr 1000 ------- 2 1.0 3.1 152 174
- 1.316 1 2 cbr 1000 ------- 2 1.0 3.1 152 174
r 1.322 1 2 cbr 1000 ------- 2 1.0 3.1 151 173
+ 1.324 1 2 cbr 1000 ------- 2 1.0 3.1 153 176
- 1.324 1 2 cbr 1000 ------- 2 1.0 3.1 153 176
r 1.33 1 2 cbr 1000 ------- 2 1.0 3.1 152 174
+ 1.332 1 2 cbr 1000 ------- 2 1.0 3.1 154 177
- 1.332 1 2 cbr 1000 ------- 2 1.0 3.1 154 177
r 1.338 1 2 cbr 1000 ------- 2 1.0 3.1 153 176
+ 1.34 1 2 cbr 1000 ------- 2 1.0 3.1 155 178
- 1.34 1 2 cbr 1000 ------- 2 1.0 3.1 155 178
r 1.346 1 2 cbr 1000 ------- 2 1.0 3.1 154 177
+ 1.348 1 2 cbr 1000 ------- 2 1.0 3.1 156 179
- 1.348 1 2 cbr 1000 ------- 2 1.0 3.1 156 179
r 1.354 1 2 cbr 1000 ------- 2 1.0 3.1 155 178
+ 1.356 1 2 cbr 1000 ------- 2 1.0 3.1 157 182
- 1.356 1 2 cbr 1000 ------- 2 1.0 3.1 157 182
r 1.362 1 2 cbr 1000 ------- 2 1.0 3.1 156 179
+ 1.364 1 2 cbr 1000 ------- 2 1.0 3.1 158 183
- 1.364 1 2 cbr 1000 ------- 2 1.0 3.1 158 183
r 1.37 1 2 cbr 1000 ------- 2 1.0 3.1 157 182
+ 1.372 1 2 cbr 1000 ------- 2 1.0 3.1 159 184
- 1.372 1 2 cbr 1000 ------- 2 1.0 3.1 159 184
r 1.378 1 2 cbr 1000 ------- 2 1.0 3.1 158 183
+ 1.38 1 2 cbr 1000 ------- 2 1.0 3.1 160 185
- 1.38 1 2 cbr 1000 ------- 2 1.0 3.1 160 185
r 1.386 1 2 cbr 1000 ------- 2 1.0 3.1 159 184
+ 1.388 1 2 cbr 1000 ------- 2 1.0 3.1 161 186
- 1.388 1 2 cbr 1000 ------- 2 1.0 3.1 161 186
r 1.394 1 2 cbr 1000 ------- 2 1.0 3.1 160 185
+ 1.396 1 2 cbr 1000 ------- 2 1.0 3.1 162 188
- 1.396 1 2 cbr 1000 ------- 2 1.0 3.1 162 188
r 1.402 1 2 cbr 1000 ------- 2 1.0 3.1 161 186
+ 1.404 1 2 cbr 1000 ------- 2 1.0 3.1 163 189
- 1.404 1 2 cbr 1000 ------- 2 1.0 3.1 163 189
r 1.41 1 2 cbr 1000 ------- 2 1.0 3.1 162 188
+ 1.412 1 2 cbr 1000 ------- 2 1.0 3.1 164 190
- 1.412 1 2 cbr 1000 ------- 2 1.0 3.1 164 190
r 1.418 1 2 cbr 1000 ------- 2 1.0 3.1 163 189
+ 1.42 1 2 cbr 1000 ------- 2 1.0 3.1 165 191
- 1.42 1 2 cbr 1000 ------- 2 1.0 3.1 165 191
r 1.426 1 2 cbr 1000 ------- 2 1.0 3.1 164 190
+ 1.428 1 2 cbr 1000 ------- 2 1.0 3.1 166 193
- 1.428 1 2 cbr 1000 ------- 2 1.0 3.1 166 193
r 1.434 1 2 cbr 1000 ------- 2 1.0 3.1 165 191
+ 1.436 1 2 cbr 1000 ------- 2 1.0 3.1 167 194
- 1.436 1 2 cbr 1000 ------- 2 1.0 3.1 167 194
r 1.442 1 2 cbr 1000 ------- 2 1.0 3.1 166 193
+ 1.444 1 2 cbr 1000 ------- 2 1.0 3.1 168 195
- 1.444 1 2 cbr 1000 ------- 2 1.0 3.1 168 195
r 1.45 1 2 cbr 1000 ------- 2 1.0 3.1 167 194
+ 1.452 1 2 cbr 1000 ------- 2 1.0 3.1 169 196
- 1.452 1 2 cbr 1000 ------- 2 1.0 3.1 169 196
r 1.458 1 2 cbr 1000 ------- 2 1.0 3.1 168 195
+ 1.46 1 2 cbr 1000 ------- 2 1.0 3.1 170 197
- 1.46 1 2 cbr 1000 ------- 2 1.0 3.1 170 197
r 1.466 1 2 cbr 1000 ------- 2 1.0 3.1 169 196
+ 1.468 1 2 cbr 1000 ------- 2 1.0 3.1 171 199
- 1.468 1 2 cbr 1000 ------- 2 1.0 3.1 171 199
r 1.474 1 2 cbr 1000 ------- 2 1.0 3.1 170 197
+ 1.476 1 2 cbr 1000 ------- 2 1.0 3.1 172 200
- 1.476 1 2 cbr 1000 ------- 2 1.0 3.1 172 200
r 1.482 1 2 cbr 1000 ------- 2 1.0 3.1 171 199
+ 1.484 1 2 cbr 1000 ------- 2 1.0 3.1 173 201
- 1.484 1 2 cbr 1000 ------- 2 1.0 3.1 173 201
r 1.49 1 2 cbr 1000 ------- 2 1.0 3.1 172 200
+ 1.492 1 2 cbr 1000 ------- 2 1.0 3.1 174 202
- 1.492 1 2 cbr 1000 ------- 2 1.0 3.1 174 202
r 1.498 1 2 cbr 1000 ------- 2 1.0 3.1 173 201
+ 1.5 1 2 cbr 1000 ------- 2 1.0 3.1 175 204
- 1.5 1 2 cbr 1000 ------- 2 1.0 3.1 175 204
r 1.506 1 2 cbr 1000 ------- 2 1.0 3.1 174 202
+ 1.508 1 2 cbr 1000 ------- 2 1.0 3.1 176 205
- 1.508 1 2 cbr 1000 ------- 2 1.0 3.1 176 205
r 1.514 1 2 cbr 1000 ------- 2 1.0 3.1 175 204
+ 1.516 1 2 cbr 1000 ------- 2 1.0 3.1 177 206
- 1.516 1 2 cbr 1000 ------- 2 1.0 3.1 177 206
r 1.522 1 2 cbr 1000 ------- 2 1.0 3.1 176 205
+ 1.524 1 2 cbr 1000 ------- 2 1.0 3.1 178 207
- 1.524 1 2 cbr 1000 ------- 2 1.0 3.1 178 207
r 1.53 1 2 cbr 1000 ------- 2 1.0 3.1 177 206
+ 1.532 1 2 cbr 1000 ------- 2 1.0 3.1 179 208
- 1.532 1 2 cbr 1000 ------- 2 1.0 3.1 179 208
r 1.538 1 2 cbr 1000 ------- 2 1.0 3.1 178 207
+ 1.54 1 2 cbr 1000 ------- 2 1.0 3.1 180 209
- 1.54 1 2 cbr 1000 ------- 2 1.0 3.1 180 209
r 1.546 1 2 cbr 1000 ------- 2 1.0 3.1 179 208
+ 1.548 1 2 cbr 1000 ------- 2 1.0 3.1 181 210
- 1.548 1 2 cbr 1000 ------- 2 1.0 3.1 181 210
r 1.554 1 2 cbr 1000 ------- 2 1.0 3.1 180 209
+ 1.556 1 2 cbr 1000 ------- 2 1.0 3.1 182 211
- 1.556 1 2 cbr 1000 ------- 2 1.0 3.1 182 211
r 1.562 1 2 cbr 1000 ------- 2 1.0 3.1 181 210
+ 1.564 1 2 cbr 1000 ------- 2 1.0 3.1 183 212
- 1.564 1 2 cbr 1000 ------- 2 1.0 3.1 183 212
r 1.57 1 2 cbr 1000 ------- 2 1.0 3.1 182 211
+ 1.572 1 2 cbr 1000 ------- 2 1.0 3.1 184 213
- 1.572 1 2 cbr 1000 ------- 2 1.0 3.1 184 213
r 1.578 1 2 cbr 1000 ------- 2 1.0 3.1 183 212
+ 1.58 1 2 cbr 1000 ------- 2 1.0 3.1 185 214
- 1.58 1 2 cbr 1000 ------- 2 1.0 3.1 185 214
r 1.586 1 2 cbr 1000 ------- 2 1.0 3.1 184 213
+ 1.588 1 2 cbr 1000 ------- 2 1.0 3.1 186 215
- 1.588 1 2 cbr 1000 ------- 2 1.0 3.1 186 215
r 1.594 1 2 cbr 1000 ------- 2 1.0 3.1 185 214
+ 1.596 1 2 cbr 1000 ------- 2 1.0 3.1 187 216
- 1.596 1 2 cbr 1000 ------- 2 1.0 3.1 187 216
r 1.602 1 2 cbr 1000 ------- 2 1.0 3.1 186 215
+ 1.604 1 2 cbr 1000 ------- 2 1.0 3.1 188 217
- 1.604 1 2 cbr 1000 ------- 2 1.0 3.1 188 217
r 1.61 1 2 cbr 1000 ------- 2 1.0 3.1 187 216
+ 1.612 1 2 cbr 1000 ------- 2 1.0 3.1 189 218
- 1.612 1 2 cbr 1000 ------- 2 1.0 3.1 189 218
r 1.618 1 2 cbr 1000 ------- 2 1.0 3.1 188 217
+ 1.62 1 2 cbr 1000 ------- 2 1.0 3.1 190 219
- 1.62 1 2 cbr 1000 ------- 2 1.0 3.1 190 219
r 1.626 1 2 cbr 1000 ------- 2 1.0 3.1 189 218
+ 1.628 1 2 cbr 1000 ------- 2 1.0 3.1 191 221
- 1.628 1 2 cbr 1000 ------- 2 1.0 3.1 191 221
r 1.634 1 2 cbr 1000 ------- 2 1.0 3.1 190 219
+ 1.636 1 2 cbr 1000 ------- 2 1.0 3.1 192 222
- 1.636 1 2 cbr 1000 ------- 2 1.0 3.1 192 222
r 1.642 1 2 cbr 1000 ------- 2 1.0 3.1 191 221
+ 1.644 1 2 cbr 1000 ------- 2 1.0 3.1 193 223
- 1.644 1 2 cbr 1000 ------- 2 1.0 3.1 193 223
r 1.65 1 2 cbr 1000 ------- 2 1.0 3.1 192 222
+ 1.652 1 2 cbr 1000 ------- 2 1.0 3.1 194 224
- 1.652 1 2 cbr 1000 ------- 2 1.0 3.1 194 224
r 1.658 1 2 cbr 1000 ------- 2 1.0 3.1 193 223
+ 1.66 1 2 cbr 1000 ------- 2 1.0 3.1 195 225
- 1.66 1 2 cbr 1000 ------- 2 1.0 3.1 195 225
r 1.666 1 2 cbr 1000 ------- 2 1.0 3.1 194 224
+ 1.668 1 2 cbr 1000 ------- 2 1.0 3.1 196 227
- 1.668 1 2 cbr 1000 ------- 2 1.0 3.1 196 227
r 1.674 1 2 cbr 1000 ------- 2 1.0 3.1 195 225
+ 1.676 1 2 cbr 1000 ------- 2 1.0 3.1 197 228
- 1.676 1 2 cbr 1000 ------- 2 1.0 3.1 197 228
r 1.682 1 2 cbr 1000 ------- 2 1.0 3.1 196 227
+ 1.684 1 2 cbr 1000 ------- 2 1.0 3.1 198 229
- 1.684 1 2 cbr 1000 ------- 2 1.0 3.1 198 229
r 1.69 1 2 cbr 1000 ------- 2 1.0 3.1 197 228
+ 1.692 1 2 cbr 1000 ------- 2 1.0 3.1 199 230
- 1.692 1 2 cbr 1000 ------- 2 1.0 3.1 199 230
r 1.698 1 2 cbr 1000 ------- 2 1.0 3.1 198 229
+ 1.7 1 2 cbr 1000 ------- 2 1.0 3.1 200 233
- 1.7 1 2 cbr 1000 ------- 2 1.0 3.1 200 233
r 1.706 1 2 cbr 1000 ------- 2 1.0 3.1 199 230
+ 1.708 1 2 cbr 1000 ------- 2 1.0 3.1 201 234
- 1.708 1 2 cbr 1000 ------- 2 1.0 3.1 201 234
r 1.714 1 2 cbr 1000 ------- 2 1.0 3.1 200 233
+ 1.716 1 2 cbr 1000 ------- 2 1.0 3.1 202 235
- 1.716 1 2 cbr 1000 ------- 2 1.0 3.1 202 235
r 1.722 1 2 cbr 1000 ------- 2 1.0 3.1 201 234
+ 1.724 1 2 cbr 1000 ------- 2 1.0 3.1 203 236
- 1.724 1 2 cbr 1000 ------- 2 1.0 3.1 203 236
r 1.73 1 2 cbr 1000 ------- 2 1.0 3.1 202 235
+ 1.732 1 2 cbr 1000 ------- 2 1.0 3.1 204 237
- 1.732 1 2 cbr 1000 ------- 2 1.0 3.1 204 237
r 1.738 1 2 cbr 1000 ------- 2 1.0 3.1 203 236
+ 1.74 1 2 cbr 1000 ------- 2 1.0 3.1 205 239
- 1.74 1 2 cbr 1000 ------- 2 1.0 3.1 205 239
r 1.746 1 2 cbr 1000 ------- 2 1.0 3.1 204 237
+ 1.748 1 2 cbr 1000 ------- 2 1.0 3.1 206 241
- 1.748 1 2 cbr 1000 ------- 2 1.0 3.1 206 241
r 1.754 1 2 cbr 1000 ------- 2 1.0 3.1 205 239
+ 1.756 1 2 cbr 1000 ------- 2 1.0 3.1 207 242
- 1.756 1 2 cbr 1000 ------- 2 1.0 3.1 207 242
r 1.762 1 2 cbr 1000 ------- 2 1.0 3.1 206 241
+ 1.764 1 2 cbr 1000 ------- 2 1.0 3.1 208 243
- 1.764 1 2 cbr 1000 ------- 2 1.0 3.1 208 243
r 1.77 1 2 cbr 1000 ------- 2 1.0 3.1 207 242
+ 1.772 1 2 cbr 1000 ------- 2 1.0 3.1 209 246
- 1.772 1 2 cbr 1000 ------- 2 1.0 3.1 209 246
r 1.778 1 2 cbr 1000 ------- 2 1.0 3.1 208 243
+ 1.78 1 2 cbr 1000 ------- 2 1.0 3.1 210 247
- 1.78 1 2 cbr 1000 ------- 2 1.0 3.1 210 247
r 1.786 1 2 cbr 1000 ------- 2 1.0 3.1 209 246
+ 1.788 1 2 cbr 1000 ------- 2 1.0 3.1 211 248
- 1.788 1 2 cbr 1000 ------- 2 1.0 3.1 211 248
r 1.794 1 2 cbr 1000 ------- 2 1.0 3.1 210 247
+ 1.796 1 2 cbr 1000 ------- 2 1.0 3.1 212 249
- 1.796 1 2 cbr 1000 ------- 2 1.0 3.1 212 249
r 1.802 1 2 cbr 1000 ------- 2 1.0 3.1 211 248
+ 1.804 1 2 cbr 1000 ------- 2 1.0 3.1 213 250
- 1.804 1 2 cbr 1000 ------- 2 1.0 3.1 213 250
r 1.81 1 2 cbr 1000 ------- 2 1.0 3.1 212 249
+ 1.812 1 2 cbr 1000 ------- 2 1.0 3.1 214 252
- 1.812 1 2 cbr 1000 ------- 2 1.0 3.1 214 252
r 1.818 1 2 cbr 1000 ------- 2 1.0 3.1 213 250
+ 1.82 1 2 cbr 1000 ------- 2 1.0 3.1 215 254
- 1.82 1 2 cbr 1000 ------- 2 1.0 3.1 215 254
r 1.826 1 2 cbr 1000 ------- 2 1.0 3.1 214 252
+ 1.828 1 2 cbr 1000 ------- 2 1.0 3.1 216 255
- 1.828 1 2 cbr 1000 ------- 2 1.0 3.1 216 255
r 1.834 1 2 cbr 1000 ------- 2 1.0 3.1 215 254
+ 1.836 1 2 cbr 1000 ------- 2 1.0 3.1 217 256
- 1.836 1 2 cbr 1000 ------- 2 1.0 3.1 217 256
r 1.842 1 2 cbr 1000 ------- 2 1.0 3.1 216 255
+ 1.844 1 2 cbr 1000 ------- 2 1.0 3.1 218 260
- 1.844 1 2 cbr 1000 ------- 2 1.0 3.1 218 260