V -t * -v 1.0a5 -a 0
A -t * -n 1 -p 0 -o 0x7fffffff -c 30 -a 1
A -t * -h 1 -m 1073741823 -s 0
n -t * -a 4 -s 4 -S UP -v circle -c black -i black
n -t * -a 0 -s 0 -S UP -v circle -c black -i black
n -t * -a 5 -s 5 -S UP -v circle -c black -i black
n -t * -a 1 -s 1 -S UP -v circle -c black -i black
n -t * -a 2 -s 2 -S UP -v circle -c black -i black
n -t * -a 3 -s 3 -S UP -v circle -c black -i black
l -t * -s 0 -d 1 -S UP -r 10000000 -D 0.01 -c black -o right
l -t * -s 2 -d 0 -S UP -r 100000000 -D 0.01 -c black
l -t * -s 3 -d 0 -S UP -r 100000000 -D 0.040000000000000001 -c black
l -t * -s 4 -d 0 -S UP -r 100000000 -D 0.070000000000000007 -c black
l -t * -s 5 -d 0 -S UP -r 100000000 -D 0.10000000000000001 -c black
+ -t 0.1 -s 2 -d 0 -p tcp -e 40 -c 0 -i 0 -a 0 -x {2.0 1.0 0 ------- null}
- -t 0.1 -s 2 -d 0 -p tcp -e 40 -c 0 -i 0 -a 0 -x {2.0 1.0 0 ------- null}
h -t 0.1 -s 2 -d 0 -p tcp -e 40 -c 0 -i 0 -a 0 -x {2.0 1.0 -1 ------- null}
+ -t 0.1 -s 3 -d 0 -p tcp -e 40 -c 1 -i 1 -a 1 -x {3.0 1.1 0 ------- null}
- -t 0.1 -s 3 -d 0 -p tcp -e 40 -c 1 -i 1 -a 1 -x {3.0 1.1 0 ------- null}
h -t 0.1 -s 3 -d 0 -p tcp -e 40 -c 1 -i 1 -a 1 -x {3.0 1.1 -1 ------- null}
+ -t 0.1 -s 4 -d 0 -p tcp -e 40 -c 2 -i 2 -a 2 -x {4.0 1.2 0 ------- null}
- -t 0.1 -s 4 -d 0 -p tcp -e 40 -c 2 -i 2 -a 2 -x {4.0 1.2 0 ------- null}
h -t 0.1 -s 4 -d 0 -p tcp -e 40 -c 2 -i 2 -a 2 -x {4.0 1.2 -1 ------- null}
+ -t 0.1 -s 5 -d 0 -p tcp -e 40 -c 3 -i 3 -a 3 -x {5.0 1.3 0 ------- null}
- -t 0.1 -s 5 -d 0 -p tcp -e 40 -c 3 -i 3 -a 3 -x {5.0 1.3 0 ------- null}
h -t 0.1 -s 5 -d 0 -p tcp -e 40 -c 3 -i 3 -a 3 -x {5.0 1.3 -1 ------- null}
r -t 0.1100032 -s 2 -d 0 -p tcp -e 40 -c 0 -i 0 -a 0 -x {2.0 1.0 0 ------- null}
+ -t 0.1100032 -s 0 -d 1 -p tcp -e 40 -c 0 -i 0 -a 0 -x {2.0 1.0 0 ------- null}
- -t 0.1100032 -s 0 -d 1 -p tcp -e 40 -c 0 -i 0 -a 0 -x {2.0 1.0 0 ------- null}
h -t 0.1100032 -s 0 -d 1 -p tcp -e 40 -c 0 -i 0 -a 0 -x {2.0 1.0 -1 ------- null}
r -t 0.1200352 -s 0 -d 1 -p tcp -e 40 -c 0 -i 0 -a 0 -x {2.0 1.0 0 ------- null}
+ -t 0.1200352 -s 1 -d 0 -p ack -e 40 -c 0 -i 4 -a 0 -x {1.0 2.0 0 ------- null}
- -t 0.1200352 -s 1 -d 0 -p ack -e 40 -c 0 -i 4 -a 0 -x {1.0 2.0 0 ------- null}
h -t 0.1200352 -s 1 -d 0 -p ack -e 40 -c 0 -i 4 -a 0 -x {1.0 2.0 -1 ------- null}
r -t 0.1300672 -s 1 -d 0 -p ack -e 40 -c 0 -i 4 -a 0 -x {1.0 2.0 0 ------- null}
+ -t 0.1300672 -s 0 -d 2 -p ack -e 40 -c 0 -i 4 -a 0 -x {1.0 2.0 0 ------- null}
- -t 0.1300672 -s 0 -d 2 -p ack -e 40 -c 0 -i 4 -a 0 -x {1.0 2.0 0 ------- null}
h -t 0.1300672 -s 0 -d 2 -p ack -e 40 -c 0 -i 4 -a 0 -x {1.0 2.0 -1 ------- null}
r -t 0.1400032 -s 3 -d 0 -p tcp -e 40 -c 1 -i 1 -a 1 -x {3.0 1.1 0 ------- null}
d -t 0.1400032 -s 0 -d 1 -p tcp -e 40 -c 1 -i 1 -a 1 -x {3.0 1.1 0 ------- null}
r -t 0.1400704 -s 0 -d 2 -p ack -e 40 -c 0 -i 4 -a 0 -x {1.0 2.0 0 ------- null}
+ -t 0.1400704 -s 2 -d 0 -p tcp -e 1500 -c 0 -i 5 -a 0 -x {2.0 1.0 1 ------- null}
- -t 0.1400704 -s 2 -d 0 -p tcp -e 1500 -c 0 -i 5 -a 0 -x {2.0 1.0 1 ------- null}
h -t 0.1400704 -s 2 -d 0 -p tcp -e 1500 -c 0 -i 5 -a 0 -x {2.0 1.0 -1 ------- null}
+ -t 0.1400704 -s 2 -d 0 -p tcp -e 1500 -c 0 -i 6 -a 0 -x {2.0 1.0 2 ------- null}
- -t 0.1401904 -s 2 -d 0 -p tcp -e 1500 -c 0 -i 6 -a 0 -x {2.0 1.0 2 ------- null}
h -t 0.1401904 -s 2 -d 0 -p tcp -e 1500 -c 0 -i 6 -a 0 -x {2.0 1.0 -1 ------- null}
r -t 0.1501904 -s 2 -d 0 -p tcp -e 1500 -c 0 -i 5 -a 0 -x {2.0 1.0 1 ------- null}
+ -t 0.1501904 -s 0 -d 1 -p tcp -e 1500 -c 0 -i 5 -a 0 -x {2.0 1.0 1 ------- null}
- -t 0.1501904 -s 0 -d 1 -p tcp -e 1500 -c 0 -i 5 -a 0 -x {2.0 1.0 1 ------- null}
h -t 0.1501904 -s 0 -d 1 -p tcp -e 1500 -c 0 -i 5 -a 0 -x {2.0 1.0 -1 ------- null}
r -t 0.1503104 -s 2 -d 0 -p tcp -e 1500 -c 0 -i 6 -a 0 -x {2.0 1.0 2 ------- null}
+ -t 0.1503104 -s 0 -d 1 -p tcp -e 1500 -c 0 -i 6 -a 0 -x {2.0 1.0 2 ------- null}
- -t 0.1513904 -s 0 -d 1 -p tcp -e 1500 -c 0 -i 6 -a 0 -x {2.0 1.0 2 ------- null}
h -t 0.1513904 -s 0 -d 1 -p tcp -e 1500 -c 0 -i 6 -a 0 -x {2.0 1.0 -1 ------- null}
r -t 0.1613904 -s 0 -d 1 -p tcp -e 1500 -c 0 -i 5 -a 0 -x {2.0 1.0 1 ------- null}
+ -t 0.1613904 -s 1 -d 0 -p ack -e 40 -c 0 -i 7 -a 0 -x {1.0 2.0 1 ------- null}
- -t 0.1613904 -s 1 -d 0 -p ack -e 40 -c 0 -i 7 -a 0 -x {1.0 2.0 1 ------- null}
h -t 0.1613904 -s 1 -d 0 -p ack -e 40 -c 0 -i 7 -a 0 -x {1.0 2.0 -1 ------- null}
r -t 0.1625904 -s 0 -d 1 -p tcp -e 1500 -c 0 -i 6 -a 0 -x {2.0 1.0 2 ------- null}
+ -t 0.1625904 -s 1 -d 0 -p ack -e 40 -c 0 -i 8 -a 0 -x {1.0 2.0 2 ------- null}
- -t 0.1625904 -s 1 -d 0 -p ack -e 40 -c 0 -i 8 -a 0 -x {1.0 2.0 2 ------- null}
h -t 0.1625904 -s 1 -d 0 -p ack -e 40 -c 0 -i 8 -a 0 -x {1.0 2.0 -1 ------- null}
r -t 0.1700032 -s 4 -d 0 -p tcp -e 40 -c 2 -i 2 -a 2 -x {4.0 1.2 0 ------- null}
+ -t 0.1700032 -s 0 -d 1 -p tcp -e 40 -c 2 -i 2 -a 2 -x {4.0 1.2 0 ------- null}
- -t 0.1700032 -s 0 -d 1 -p tcp -e 40 -c 2 -i 2 -a 2 -x {4.0 1.2 0 ------- null}
h -t 0.1700032 -s 0 -d 1 -p tcp -e 40 -c 2 -i 2 -a 2 -x {4.0 1.2 -1 ------- null}
r -t 0.1714224 -s 1 -d 0 -p ack -e 40 -c 0 -i 7 -a 0 -x {1.0 2.0 1 ------- null}
+ -t 0.1714224 -s 0 -d 2 -p ack -e 40 -c 0 -i 7 -a 0 -x {1.0 2.0 1 ------- null}
- -t 0.1714224 -s 0 -d 2 -p ack -e 40 -c 0 -i 7 -a 0 -x {1.0 2.0 1 ------- null}
h -t 0.1714224 -s 0 -d 2 -p ack -e 40 -c 0 -i 7 -a 0 -x {1.0 2.0 -1 ------- null}
r -t 0.1726224 -s 1 -d 0 -p ack -e 40 -c 0 -i 8 -a 0 -x {1.0 2.0 2 ------- null}
+ -t 0.1726224 -s 0 -d 2 -p ack -e 40 -c 0 -i 8 -a 0 -x {1.0 2.0 2 ------- null}
- -t 0.1726224 -s 0 -d 2 -p ack -e 40 -c 0 -i 8 -a 0 -x {1.0 2.0 2 ------- null}
h -t 0.1726224 -s 0 -d 2 -p ack -e 40 -c 0 -i 8 -a 0 -x {1.0 2.0 -1 ------- null}
r -t 0.1800352 -s 0 -d 1 -p tcp -e 40 -c 2 -i 2 -a 2 -x {4.0 1.2 0 ------- null}
+ -t 0.1800352 -s 1 -d 0 -p ack -e 40 -c 2 -i 9 -a 2 -x {1.2 4.0 0 ------- null}
- -t 0.1800352 -s 1 -d 0 -p ack -e 40 -c 2 -i 9 -a 2 -x {1.2 4.0 0 ------- null}
h -t 0.1800352 -s 1 -d 0 -p ack -e 40 -c 2 -i 9 -a 2 -x {1.2 4.0 -1 ------- null}
r -t 0.1814256 -s 0 -d 2 -p ack -e 40 -c 0 -i 7 -a 0 -x {1.0 2.0 1 ------- null}
+ -t 0.1814256 -s 2 -d 0 -p tcp -e 1500 -c 0 -i 10 -a 0 -x {2.0 1.0 3 ------- null}
- -t 0.1814256 -s 2 -d 0 -p tcp -e 1500 -c 0 -i 10 -a 0 -x {2.0 1.0 3 ------- null}
h -t 0.1814256 -s 2 -d 0 -p tcp -e 1500 -c 0 -i 10 -a 0 -x {2.0 1.0 -1 ------- null}
+ -t 0.1814256 -s 2 -d 0 -p tcp -e 1500 -c 0 -i 11 -a 0 -x {2.0 1.0 4 ------- null}
- -t 0.1815456 -s 2 -d 0 -p tcp -e 1500 -c 0 -i 11 -a 0 -x {2.0 1.0 4 ------- null}
h -t 0.1815456 -s 2 -d 0 -p tcp -e 1500 -c 0 -i 11 -a 0 -x {2.0 1.0 -1 ------- null}
r -t 0.1826256 -s 0 -d 2 -p ack -e 40 -c 0 -i 8 -a 0 -x {1.0 2.0 2 ------- null}
+ -t 0.1826256 -s 2 -d 0 -p tcp -e 1500 -c 0 -i 12 -a 0 -x {2.0 1.0 5 ------- null}
- -t 0.1826256 -s 2 -d 0 -p tcp -e 1500 -c 0 -i 12 -a 0 -x {2.0 1.0 5 ------- null}
h -t 0.1826256 -s 2 -d 0 -p tcp -e 1500 -c 0 -i 12 -a 0 -x {2.0 1.0 -1 ------- null}
+ -t 0.1826256 -s 2 -d 0 -p tcp -e 1500 -c 0 -i 13 -a 0 -x {2.0 1.0 6 ------- null}
- -t 0.1827456 -s 2 -d 0 -p tcp -e 1500 -c 0 -i 13 -a 0 -x {2.0 1.0 6 ------- null}
h -t 0.1827456 -s 2 -d 0 -p tcp -e 1500 -c 0 -i 13 -a 0 -x {2.0 1.0 -1 ------- null}
r -t 0.1900672 -s 1 -d 0 -p ack -e 40 -c 2 -i 9 -a 2 -x {1.2 4.0 0 ------- null}
+ -t 0.1900672 -s 0 -d 4 -p ack -e 40 -c 2 -i 9 -a 2 -x {1.2 4.0 0 ------- null}
- -t 0.1900672 -s 0 -d 4 -p ack -e 40 -c 2 -i 9 -a 2 -x {1.2 4.0 0 ------- null}
h -t 0.1900672 -s 0 -d 4 -p ack -e 40 -c 2 -i 9 -a 2 -x {1.2 4.0 -1 ------- null}
r -t 0.1915456 -s 2 -d 0 -p tcp -e 1500 -c 0 -i 10 -a 0 -x {2.0 1.0 3 ------- null}
+ -t 0.1915456 -s 0 -d 1 -p tcp -e 1500 -c 0 -i 10 -a 0 -x {2.0 1.0 3 ------- null}
- -t 0.1915456 -s 0 -d 1 -p tcp -e 1500 -c 0 -i 10 -a 0 -x {2.0 1.0 3 ------- null}
h -t 0.1915456 -s 0 -d 1 -p tcp -e 1500 -c 0 -i 10 -a 0 -x {2.0 1.0 -1 ------- null}
r -t 0.1916656 -s 2 -d 0 -p tcp -e 1500 -c 0 -i 11 -a 0 -x {2.0 1.0 4 ------- null}
+ -t 0.1916656 -s 0 -d 1 -p tcp -e 1500 -c 0 -i 11 -a 0 -x {2.0 1.0 4 ------- null}
r -t 0.1927456 -s 2 -d 0 -p tcp -e 1500 -c 0 -i 12 -a 0 -x {2.0 1.0 5 ------- null}
d -t 0.1927456 -s 0 -d 1 -p tcp -e 1500 -c 0 -i 12 -a 0 -x {2.0 1.0 5 ------- null}
- -t 0.1927456 -s 0 -d 1 -p tcp -e 1500 -c 0 -i 11 -a 0 -x {2.0 1.0 4 ------- null}
h -t 0.1927456 -s 0 -d 1 -p tcp -e 1500 -c 0 -i 11 -a 0 -x {2.0 1.0 -1 ------- null}
r -t 0.1928656 -s 2 -d 0 -p tcp -e 1500 -c 0 -i 13 -a 0 -x {2.0 1.0 6 ------- null}
+ -t 0.1928656 -s 0 -d 1 -p tcp -e 1500 -c 0 -i 13 -a 0 -x {2.0 1.0 6 ------- null}
- -t 0.1939456 -s 0 -d 1 -p tcp -e 1500 -c 0 -i 13 -a 0 -x {2.0 1.0 6 ------- null}
h -t 0.1939456 -s 0 -d 1 -p tcp -e 1500 -c 0 -i 13 -a 0 -x {2.0 1.0 -1 ------- null}
r -t 0.2000032 -s 5 -d 0 -p tcp -e 40 -c 3 -i 3 -a 3 -x {5.0 1.3 0 ------- null}
+ -t 0.2000032 -s 0 -d 1 -p tcp -e 40 -c 3 -i 3 -a 3 -x {5.0 1.3 0 ------- null}
- -t 0.2000032 -s 0 -d 1 -p tcp -e 40 -c 3 -i 3 -a 3 -x {5.0 1.3 0 ------- null}
h -t 0.2000032 -s 0 -d 1 -p tcp -e 40 -c 3 -i 3 -a 3 -x {5.0 1.3 -1 ------- null}
r -t 0.2027456 -s 0 -d 1 -p tcp -e 1500 -c 0 -i 10 -a 0 -x {2.0 1.0 3 ------- null}
+ -t 0.2027456 -s 1 -d 0 -p ack -e 40 -c 0 -i 14 -a 0 -x {1.0 2.0 3 ------- null}
- -t 0.2027456 -s 1 -d 0 -p ack -e 40 -c 0 -i 14 -a 0 -x {1.0 2.0 3 ------- null}
h -t 0.2027456 -s 1 -d 0 -p ack -e 40 -c 0 -i 14 -a 0 -x {1.0 2.0 -1 ------- null}
r -t 0.2039456 -s 0 -d 1 -p tcp -e 1500 -c 0 -i 11 -a 0 -x {2.0 1.0 4 ------- null}
+ -t 0.2039456 -s 1 -d 0 -p ack -e 40 -c 0 -i 15 -a 0 -x {1.0 2.0 4 ------- null}
- -t 0.2039456 -s 1 -d 0 -p ack -e 40 -c 0 -i 15 -a 0 -x {1.0 2.0 4 ------- null}
h -t 0.2039456 -s 1 -d 0 -p ack -e 40 -c 0 -i 15 -a 0 -x {1.0 2.0 -1 ------- null}
r -t 0.2051456 -s 0 -d 1 -p tcp -e 1500 -c 0 -i 13 -a 0 -x {2.0 1.0 6 ------- null}
+ -t 0.2051456 -s 1 -d 0 -p ack -e 40 -c 0 -i 16 -a 0 -x {1.0 2.0 4 ------- null}
- -t 0.2051456 -s 1 -d 0 -p ack -e 40 -c 0 -i 16 -a 0 -x {1.0 2.0 4 ------- null}
h -t 0.2051456 -s 1 -d 0 -p ack -e 40 -c 0 -i 16 -a 0 -x {1.0 2.0 -1 ------- null}
r -t 0.2100352 -s 0 -d 1 -p tcp -e 40 -c 3 -i 3 -a 3 -x {5.0 1.3 0 ------- null}
+ -t 0.2100352 -s 1 -d 0 -p ack -e 40 -c 3 -i 17 -a 3 -x {1.3 5.0 0 ------- null}
- -t 0.2100352 -s 1 -d 0 -p ack -e 40 -c 3 -i 17 -a 3 -x {1.3 5.0 0 ------- null}
h -t 0.2100352 -s 1 -d 0 -p ack -e 40 -c 3 -i 17 -a 3 -x {1.3 5.0 -1 ------- null}
r -t 0.2127776 -s 1 -d 0 -p ack -e 40 -c 0 -i 14 -a 0 -x {1.0 2.0 3 ------- null}
+ -t 0.2127776 -s 0 -d 2 -p ack -e 40 -c 0 -i 14 -a 0 -x {1.0 2.0 3 ------- null}
- -t 0.2127776 -s 0 -d 2 -p ack -e 40 -c 0 -i 14 -a 0 -x {1.0 2.0 3 ------- null}
h -t 0.2127776 -s 0 -d 2 -p ack -e 40 -c 0 -i 14 -a 0 -x {1.0 2.0 -1 ------- null}
r -t 0.2139776 -s 1 -d 0 -p ack -e 40 -c 0 -i 15 -a 0 -x {1.0 2.0 4 ------- null}
+ -t 0.2139776 -s 0 -d 2 -p ack -e 40 -c 0 -i 15 -a 0 -x {1.0 2.0 4 ------- null}
- -t 0.2139776 -s 0 -d 2 -p ack -e 40 -c 0 -i 15 -a 0 -x {1.0 2.0 4 ------- null}
h -t 0.2139776 -s 0 -d 2 -p ack -e 40 -c 0 -i 15 -a 0 -x {1.0 2.0 -1 ------- null}
r -t 0.2151776 -s 1 -d 0 -p ack -e 40 -c 0 -i 16 -a 0 -x {1.0 2.0 4 ------- null}
+ -t 0.2151776 -s 0 -d 2 -p ack -e 40 -c 0 -i 16 -a 0 -x {1.0 2.0 4 ------- null}
- -t 0.2151776 -s 0 -d 2 -p ack -e 40 -c 0 -i 16 -a 0 -x {1.0 2.0 4 ------- null}
h -t 0.2151776 -s 0 -d 2 -p ack -e 40 -c 0 -i 16 -a 0 -x {1.0 2.0 -1 ------- null}
r -t 0.2200672 -s 1 -d 0 -p ack -e 40 -c 3 -i 17 -a 3 -x {1.3 5.0 0 ------- null}
+ -t 0.2200672 -s 0 -d 5 -p ack -e 40 -c 3 -i 17 -a 3 -x {1.3 5.0 0 ------- null}
- -t 0.2200672 -s 0 -d 5 -p ack -e 40 -c 3 -i 17 -a 3 -x {1.3 5.0 0 ------- null}
h -t 0.2200672 -s 0 -d 5 -p ack -e 40 -c 3 -i 17 -a 3 -x {1.3 5.0 -1 ------- null}
r -t 0.2227808 -s 0 -d 2 -p ack -e 40 -c 0 -i 14 -a 0 -x {1.0 2.0 3 ------- null}
+ -t 0.2227808 -s 2 -d 0 -p tcp -e 1500 -c 0 -i 18 -a 0 -x {2.0 1.0 7 ------- null}
- -t 0.2227808 -s 2 -d 0 -p tcp -e 1500 -c 0 -i 18 -a 0 -x {2.0 1.0 7 ------- null}
h -t 0.2227808 -s 2 -d 0 -p tcp -e 1500 -c 0 -i 18 -a 0 -x {2.0 1.0 -1 ------- null}
+ -t 0.2227808 -s 2 -d 0 -p tcp -e 1500 -c 0 -i 19 -a 0 -x {2.0 1.0 8 ------- null}
- -t 0.2229008 -s 2 -d 0 -p tcp -e 1500 -c 0 -i 19 -a 0 -x {2.0 1.0 8 ------- null}
h -t 0.2229008 -s 2 -d 0 -p tcp -e 1500 -c 0 -i 19 -a 0 -x {2.0 1.0 -1 ------- null}
r -t 0.2239808 -s 0 -d 2 -p ack -e 40 -c 0 -i 15 -a 0 -x {1.0 2.0 4 ------- null}
+ -t 0.2239808 -s 2 -d 0 -p tcp -e 1500 -c 0 -i 20 -a 0 -x {2.0 1.0 9 ------- null}
- -t 0.2239808 -s 2 -d 0 -p tcp -e 1500 -c 0 -i 20 -a 0 -x {2.0 1.0 9 ------- null}
h -t 0.2239808 -s 2 -d 0 -p tcp -e 1500 -c 0 -i 20 -a 0 -x {2.0 1.0 -1 ------- null}
+ -t 0.2239808 -s 2 -d 0 -p tcp -e 1500 -c 0 -i 21 -a 0 -x {2.0 1.0 10 ------- null}
- -t 0.2241008 -s 2 -d 0 -p tcp -e 1500 -c 0 -i 21 -a 0 -x {2.0 1.0 10 ------- null}
h -t 0.2241008 -s 2 -d 0 -p tcp -e 1500 -c 0 -i 21 -a 0 -x {2.0 1.0 -1 ------- null}
r -t 0.2251808 -s 0 -d 2 -p ack -e 40 -c 0 -i 16 -a 0 -x {1.0 2.0 4 ------- null}
+ -t 0.2251808 -s 2 -d 0 -p tcp -e 1500 -c 0 -i 22 -a 0 -x {2.0 1.0 11 ------- null}
- -t 0.2251808 -s 2 -d 0 -p tcp -e 1500 -c 0 -i 22 -a 0 -x {2.0 1.0 11 ------- null}
h -t 0.2251808 -s 2 -d 0 -p tcp -e 1500 -c 0 -i 22 -a 0 -x {2.0 1.0 -1 ------- null}
r -t 0.2329008 -s 2 -d 0 -p tcp -e 1500 -c 0 -i 18 -a 0 -x {2.0 1.0 7 ------- null}
+ -t 0.2329008 -s 0 -d 1 -p tcp -e 1500 -c 0 -i 18 -a 0 -x {2.0 1.0 7 ------- null}
- -t 0.2329008 -s 0 -d 1 -p tcp -e 1500 -c 0 -i 18 -a 0 -x {2.0 1.0 7 ------- null}
h -t 0.2329008 -s 0 -d 1 -p tcp -e 1500 -c 0 -i 18 -a 0 -x {2.0 1.0 -1 ------- null}
r -t 0.2330208 -s 2 -d 0 -p tcp -e 1500 -c 0 -i 19 -a 0 -x {2.0 1.0 8 ------- null}
+ -t 0.2330208 -s 0 -d 1 -p tcp -e 1500 -c 0 -i 19 -a 0 -x {2.0 1.0 8 ------- null}
r -t 0.2341008 -s 2 -d 0 -p tcp -e 1500 -c 0 -i 20 -a 0 -x {2.0 1.0 9 ------- null}
+ -t 0.2341008 -s 0 -d 1 -p tcp -e 1500 -c 0 -i 20 -a 0 -x {2.0 1.0 9 ------- null}
- -t 0.2341008 -s 0 -d 1 -p tcp -e 1500 -c 0 -i 19 -a 0 -x {2.0 1.0 8 ------- null}
h -t 0.2341008 -s 0 -d 1 -p tcp -e 1500 -c 0 -i 19 -a 0 -x {2.0 1.0 -1 ------- null}
r -t 0.2342208 -s 2 -d 0 -p tcp -e 1500 -c 0 -i 21 -a 0 -x {2.0 1.0 10 ------- null}
+ -t 0.2342208 -s 0 -d 1 -p tcp -e 1500 -c 0 -i 21 -a 0 -x {2.0 1.0 10 ------- null}
r -t 0.2353008 -s 2 -d 0 -p tcp -e 1500 -c 0 -i 22 -a 0 -x {2.0 1.0 11 ------- null}
+ -t 0.2353008 -s 0 -d 1 -p tcp -e 1500 -c 0 -i 22 -a 0 -x {2.0 1.0 11 ------- null}
- -t 0.2353008 -s 0 -d 1 -p tcp -e 1500 -c 0 -i 20 -a 0 -x {2.0 1.0 9 ------- null}
h -t 0.2353008 -s 0 -d 1 -p tcp -e 1500 -c 0 -i 20 -a 0 -x {2.0 1.0 -1 ------- null}
- -t 0.2365008 -s 0 -d 1 -p tcp -e 1500 -c 0 -i 21 -a 0 -x {2.0 1.0 10 ------- null}
h -t 0.2365008 -s 0 -d 1 -p tcp -e 1500 -c 0 -i 21 -a 0 -x {2.0 1.0 -1 ------- null}
- -t 0.2377008 -s 0 -d 1 -p tcp -e 1500 -c 0 -i 22 -a 0 -x {2.0 1.0 11 ------- null}
h -t 0.2377008 -s 0 -d 1 -p tcp -e 1500 -c 0 -i 22 -a 0 -x {2.0 1.0 -1 ------- null}
r -t 0.2441008 -s 0 -d 1 -p tcp -e 1500 -c 0 -i 18 -a 0 -x {2.0 1.0 7 ------- null}
+ -t 0.2441008 -s 1 -d 0 -p ack -e 40 -c 0 -i 23 -a 0 -x {1.0 2.0 4 ------- null}
- -t 0.2441008 -s 1 -d 0 -p ack -e 40 -c 0 -i 23 -a 0 -x {1.0 2.0 4 ------- null}
h -t 0.2441008 -s 1 -d 0 -p ack -e 40 -c 0 -i 23 -a 0 -x {1.0 2.0 -1 ------- null}
r -t 0.2453008 -s 0 -d 1 -p tcp -e 1500 -c 0 -i 19 -a 0 -x {2.0 1.0 8 ------- null}
+ -t 0.2453008 -s 1 -d 0 -p ack -e 40 -c 0 -i 24 -a 0 -x {1.0 2.0 4 ------- null}
- -t 0.2453008 -s 1 -d 0 -p ack -e 40 -c 0 -i 24 -a 0 -x {1.0 2.0 4 ------- null}
h -t 0.2453008 -s 1 -d 0 -p ack -e 40 -c 0 -i 24 -a 0 -x {1.0 2.0 -1 ------- null}
r -t 0.2465008 -s 0 -d 1 -p tcp -e 1500 -c 0 -i 20 -a 0 -x {2.0 1.0 9 ------- null}
+ -t 0.2465008 -s 1 -d 0 -p ack -e 40 -c 0 -i 25 -a 0 -x {1.0 2.0 4 ------- null}
- -t 0.2465008 -s 1 -d 0 -p ack -e 40 -c 0 -i 25 -a 0 -x {1.0 2.0 4 ------- null}
h -t 0.2465008 -s 1 -d 0 -p ack -e 40 -c 0 -i 25 -a 0 -x {1.0 2.0 -1 ------- null}
r -t 0.2477008 -s 0 -d 1 -p tcp -e 1500 -c 0 -i 21 -a 0 -x {2.0 1.0 10 ------- null}
+ -t 0.2477008 -s 1 -d 0 -p ack -e 40 -c 0 -i 26 -a 0 -x {1.0 2.0 4 ------- null}
- -t 0.2477008 -s 1 -d 0 -p ack -e 40 -c 0 -i 26 -a 0 -x {1.0 2.0 4 ------- null}
h -t 0.2477008 -s 1 -d 0 -p ack -e 40 -c 0 -i 26 -a 0 -x {1.0 2.0 -1 ------- null}
r -t 0.2489008 -s 0 -d 1 -p tcp -e 1500 -c 0 -i 22 -a 0 -x {2.0 1.0 11 ------- null}
+ -t 0.2489008 -s 1 -d 0 -p ack -e 40 -c 0 -i 27 -a 0 -x {1.0 2.0 4 ------- null}
- -t 0.2489008 -s 1 -d 0 -p ack -e 40 -c 0 -i 27 -a 0 -x {1.0 2.0 4 ------- null}
h -t 0.2489008 -s 1 -d 0 -p ack -e 40 -c 0 -i 27 -a 0 -x {1.0 2.0 -1 ------- null}
r -t 0.2541328 -s 1 -d 0 -p ack -e 40 -c 0 -i 23 -a 0 -x {1.0 2.0 4 ------- null}
+ -t 0.2541328 -s 0 -d 2 -p ack -e 40 -c 0 -i 23 -a 0 -x {1.0 2.0 4 ------- null}
- -t 0.2541328 -s 0 -d 2 -p ack -e 40 -c 0 -i 23 -a 0 -x {1.0 2.0 4 ------- null}
h -t 0.2541328 -s 0 -d 2 -p ack -e 40 -c 0 -i 23 -a 0 -x {1.0 2.0 -1 ------- null}
r -t 0.2553328 -s 1 -d 0 -p ack -e 40 -c 0 -i 24 -a 0 -x {1.0 2.0 4 ------- null}
+ -t 0.2553328 -s 0 -d 2 -p ack -e 40 -c 0 -i 24 -a 0 -x {1.0 2.0 4 ------- null}
- -t 0.2553328 -s 0 -d 2 -p ack -e 40 -c 0 -i 24 -a 0 -x {1.0 2.0 4 ------- null}
h -t 0.2553328 -s 0 -d 2 -p ack -e 40 -c 0 -i 24 -a 0 -x {1.0 2.0 -1 ------- null}
r -t 0.2565328 -s 1 -d 0 -p ack -e 40 -c 0 -i 25 -a 0 -x {1.0 2.0 4 ------- null}
+ -t 0.2565328 -s 0 -d 2 -p ack -e 40 -c 0 -i 25 -a 0 -x {1.0 2.0 4 ------- null}
- -t 0.2565328 -s 0 -d 2 -p ack -e 40 -c 0 -i 25 -a 0 -x {1.0 2.0 4 ------- null}
h -t 0.2565328 -s 0 -d 2 -p ack -e 40 -c 0 -i 25 -a 0 -x {1.0 2.0 -1 ------- null}
r -t 0.2577328 -s 1 -d 0 -p ack -e 40 -c 0 -i 26 -a 0 -x {1.0 2.0 4 ------- null}
+ -t 0.2577328 -s 0 -d 2 -p ack -e 40 -c 0 -i 26 -a 0 -x {1.0 2.0 4 ------- null}
- -t 0.2577328 -s 0 -d 2 -p ack -e 40 -c 0 -i 26 -a 0 -x {1.0 2.0 4 ------- null}
h -t 0.2577328 -s 0 -d 2 -p ack -e 40 -c 0 -i 26 -a 0 -x {1.0 2.0 -1 ------- null}
r -t 0.2589328 -s 1 -d 0 -p ack -e 40 -c 0 -i 27 -a 0 -x {1.0 2.0 4 ------- null}
+ -t 0.2589328 -s 0 -d 2 -p ack -e 40 -c 0 -i 27 -a 0 -x {1.0 2.0 4 ------- null}
- -t 0.2589328 -s 0 -d 2 -p ack -e 40 -c 0 -i 27 -a 0 -x {1.0 2.0 4 ------- null}
h -t 0.2589328 -s 0 -d 2 -p ack -e 40 -c 0 -i 27 -a 0 -x {1.0 2.0 -1 ------- null}
r -t 0.2600704 -s 0 -d 4 -p ack -e 40 -c 2 -i 9 -a 2 -x {1.2 4.0 0 ------- null}
+ -t 0.2600704 -s 4 -d 0 -p tcp -e 1500 -c 2 -i 28 -a 2 -x {4.0 1.2 1 ------- null}
- -t 0.2600704 -s 4 -d 0 -p tcp -e 1500 -c 2 -i 28 -a 2 -x {4.0 1.2 1 ------- null}
h -t 0.2600704 -s 4 -d 0 -p tcp -e 1500 -c 2 -i 28 -a 2 -x {4.0 1.2 -1 ------- null}
+ -t 0.2600704 -s 4 -d 0 -p tcp -e 1500 -c 2 -i 29 -a 2 -x {4.0 1.2 2 ------- null}
- -t 0.2601904 -s 4 -d 0 -p tcp -e 1500 -c 2 -i 29 -a 2 -x {4.0 1.2 2 ------- null}
h -t 0.2601904 -s 4 -d 0 -p tcp -e 1500 -c 2 -i 29 -a 2 -x {4.0 1.2 -1 ------- null}
r -t 0.264136 -s 0 -d 2 -p ack -e 40 -c 0 -i 23 -a 0 -x {1.0 2.0 4 ------- null}
+ -t 0.264136 -s 2 -d 0 -p tcp -e 1500 -c 0 -i 30 -a 0 -x {2.0 1.0 12 ------- null}
- -t 0.264136 -s 2 -d 0 -p tcp -e 1500 -c 0 -i 30 -a 0 -x {2.0 1.0 12 ------- null}
h -t 0.264136 -s 2 -d 0 -p tcp -e 1500 -c 0 -i 30 -a 0 -x {2.0 1.0 -1 ------- null}
r -t 0.265336 -s 0 -d 2 -p ack -e 40 -c 0 -i 24 -a 0 -x {1.0 2.0 4 ------- null}
+ -t 0.265336 -s 2 -d 0 -p tcp -e 1500 -c 0 -i 31 -a 0 -x {2.0 1.0 5 ---A--- null}
- -t 0.265336 -s 2 -d 0 -p tcp -e 1500 -c 0 -i 31 -a 0 -x {2.0 1.0 5 ---A--- null}
h -t 0.265336 -s 2 -d 0 -p tcp -e 1500 -c 0 -i 31 -a 0 -x {2.0 1.0 -1 ---A--- null}
r -t 0.266536 -s 0 -d 2 -p ack -e 40 -c 0 -i 25 -a 0 -x {1.0 2.0 4 ------- null}
r -t 0.267736 -s 0 -d 2 -p ack -e 40 -c 0 -i 26 -a 0 -x {1.0 2.0 4 ------- null}
r -t 0.268936 -s 0 -d 2 -p ack -e 40 -c 0 -i 27 -a 0 -x {1.0 2.0 4 ------- null}
+ -t 0.268936 -s 2 -d 0 -p tcp -e 1500 -c 0 -i 32 -a 0 -x {2.0 1.0 13 ------- null}
- -t 0.268936 -s 2 -d 0 -p tcp -e 1500 -c 0 -i 32 -a 0 -x {2.0 1.0 13 ------- null}
h -t 0.268936 -s 2 -d 0 -p tcp -e 1500 -c 0 -i 32 -a 0 -x {2.0 1.0 -1 ------- null}
r -t 0.274256 -s 2 -d 0 -p tcp -e 1500 -c 0 -i 30 -a 0 -x {2.0 1.0 12 ------- null}
+ -t 0.274256 -s 0 -d 1 -p tcp -e 1500 -c 0 -i 30 -a 0 -x {2.0 1.0 12 ------- null}
- -t 0.274256 -s 0 -d 1 -p tcp -e 1500 -c 0 -i 30 -a 0 -x {2.0 1.0 12 ------- null}
h -t 0.274256 -s 0 -d 1 -p tcp -e 1500 -c 0 -i 30 -a 0 -x {2.0 1.0 -1 ------- null}
r -t 0.275456 -s 2 -d 0 -p tcp -e 1500 -c 0 -i 31 -a 0 -x {2.0 1.0 5 ---A--- null}
+ -t 0.275456 -s 0 -d 1 -p tcp -e 1500 -c 0 -i 31 -a 0 -x {2.0 1.0 5 ---A--- null}
- -t 0.275456 -s 0 -d 1 -p tcp -e 1500 -c 0 -i 31 -a 0 -x {2.0 1.0 5 ---A--- null}
h -t 0.275456 -s 0 -d 1 -p tcp -e 1500 -c 0 -i 31 -a 0 -x {2.0 1.0 -1 ---A--- null}
r -t 0.279056 -s 2 -d 0 -p tcp -e 1500 -c 0 -i 32 -a 0 -x {2.0 1.0 13 ------- null}
+ -t 0.279056 -s 0 -d 1 -p tcp -e 1500 -c 0 -i 32 -a 0 -x {2.0 1.0 13 ------- null}
- -t 0.279056 -s 0 -d 1 -p tcp -e 1500 -c 0 -i 32 -a 0 -x {2.0 1.0 13 ------- null}
h -t 0.279056 -s 0 -d 1 -p tcp -e 1500 -c 0 -i 32 -a 0 -x {2.0 1.0 -1 ------- null}
r -t 0.285456 -s 0 -d 1 -p tcp -e 1500 -c 0 -i 30 -a 0 -x {2.0 1.0 12 ------- null}
+ -t 0.285456 -s 1 -d 0 -p ack -e 40 -c 0 -i 33 -a 0 -x {1.0 2.0 4 ------- null}
- -t 0.285456 -s 1 -d 0 -p ack -e 40 -c 0 -i 33 -a 0 -x {1.0 2.0 4 ------- null}
h -t 0.285456 -s 1 -d 0 -p ack -e 40 -c 0 -i 33 -a 0 -x {1.0 2.0 -1 ------- null}
r -t 0.286656 -s 0 -d 1 -p tcp -e 1500 -c 0 -i 31 -a 0 -x {2.0 1.0 5 ---A--- null}
+ -t 0.286656 -s 1 -d 0 -p ack -e 40 -c 0 -i 34 -a 0 -x {1.0 2.0 12 ------- null}
- -t 0.286656 -s 1 -d 0 -p ack -e 40 -c 0 -i 34 -a 0 -x {1.0 2.0 12 ------- null}
h -t 0.286656 -s 1 -d 0 -p ack -e 40 -c 0 -i 34 -a 0 -x {1.0 2.0 -1 ------- null}
r -t 0.290256 -s 0 -d 1 -p tcp -e 1500 -c 0 -i 32 -a 0 -x {2.0 1.0 13 ------- null}
+ -t 0.290256 -s 1 -d 0 -p ack -e 40 -c 0 -i 35 -a 0 -x {1.0 2.0 13 ------- null}
- -t 0.290256 -s 1 -d 0 -p ack -e 40 -c 0 -i 35 -a 0 -x {1.0 2.0 13 ------- null}
h -t 0.290256 -s 1 -d 0 -p ack -e 40 -c 0 -i 35 -a 0 -x {1.0 2.0 -1 ------- null}
r -t 0.295488 -s 1 -d 0 -p ack -e 40 -c 0 -i 33 -a 0 -x {1.0 2.0 4 ------- null}
+ -t 0.295488 -s 0 -d 2 -p ack -e 40 -c 0 -i 33 -a 0 -x {1.0 2.0 4 ------- null}
- -t 0.295488 -s 0 -d 2 -p ack -e 40 -c 0 -i 33 -a 0 -x {1.0 2.0 4 ------- null}
h -t 0.295488 -s 0 -d 2 -p ack -e 40 -c 0 -i 33 -a 0 -x {1.0 2.0 -1 ------- null}
r -t 0.296688 -s 1 -d 0 -p ack -e 40 -c 0 -i 34 -a 0 -x {1.0 2.0 12 ------- null}
+ -t 0.296688 -s 0 -d 2 -p ack -e 40 -c 0 -i 34 -a 0 -x {1.0 2.0 12 ------- null}
- -t 0.296688 -s 0 -d 2 -p ack -e 40 -c 0 -i 34 -a 0 -x {1.0 2.0 12 ------- null}
h -t 0.296688 -s 0 -d 2 -p ack -e 40 -c 0 -i 34 -a 0 -x {1.0 2.0 -1 ------- null}
r -t 0.300288 -s 1 -d 0 -p ack -e 40 -c 0 -i 35 -a 0 -x {1.0 2.0 13 ------- null}
+ -t 0.300288 -s 0 -d 2 -p ack -e 40 -c 0 -i 35 -a 0 -x {1.0 2.0 13 ------- null}
- -t 0.300288 -s 0 -d 2 -p ack -e 40 -c 0 -i 35 -a 0 -x {1.0 2.0 13 ------- null}
h -t 0.300288 -s 0 -d 2 -p ack -e 40 -c 0 -i 35 -a 0 -x {1.0 2.0 -1 ------- null}
r -t 0.3054912 -s 0 -d 2 -p ack -e 40 -c 0 -i 33 -a 0 -x {1.0 2.0 4 ------- null}
+ -t 0.3054912 -s 2 -d 0 -p tcp -e 1500 -c 0 -i 36 -a 0 -x {2.0 1.0 14 ------- null}
- -t 0.3054912 -s 2 -d 0 -p tcp -e 1500 -c 0 -i 36 -a 0 -x {2.0 1.0 14 ------- null}
h -t 0.3054912 -s 2 -d 0 -p tcp -e 1500 -c 0 -i 36 -a 0 -x {2.0 1.0 -1 ------- null}
r -t 0.3066912 -s 0 -d 2 -p ack -e 40 -c 0 -i 34 -a 0 -x {1.0 2.0 12 ------- null}
+ -t 0.3066912 -s 2 -d 0 -p tcp -e 1500 -c 0 -i 37 -a 0 -x {2.0 1.0 15 ------- null}
- -t 0.3066912 -s 2 -d 0 -p tcp -e 1500 -c 0 -i 37 -a 0 -x {2.0 1.0 15 ------- null}
h -t 0.3066912 -s 2 -d 0 -p tcp -e 1500 -c 0 -i 37 -a 0 -x {2.0 1.0 -1 ------- null}
r -t 0.3102912 -s 0 -d 2 -p ack -e 40 -c 0 -i 35 -a 0 -x {1.0 2.0 13 ------- null}
+ -t 0.3102912 -s 2 -d 0 -p tcp -e 1500 -c 0 -i 38 -a 0 -x {2.0 1.0 16 ------- null}
- -t 0.3102912 -s 2 -d 0 -p tcp -e 1500 -c 0 -i 38 -a 0 -x {2.0 1.0 16 ------- null}
h -t 0.3102912 -s 2 -d 0 -p tcp -e 1500 -c 0 -i 38 -a 0 -x {2.0 1.0 -1 ------- null}
r -t 0.3156112 -s 2 -d 0 -p tcp -e 1500 -c 0 -i 36 -a 0 -x {2.0 1.0 14 ------- null}
+ -t 0.3156112 -s 0 -d 1 -p tcp -e 1500 -c 0 -i 36 -a 0 -x {2.0 1.0 14 ------- null}
- -t 0.3156112 -s 0 -d 1 -p tcp -e 1500 -c 0 -i 36 -a 0 -x {2.0 1.0 14 ------- null}
h -t 0.3156112 -s 0 -d 1 -p tcp -e 1500 -c 0 -i 36 -a 0 -x {2.0 1.0 -1 ------- null}
r -t 0.3168112 -s 2 -d 0 -p tcp -e 1500 -c 0 -i 37 -a 0 -x {2.0 1.0 15 ------- null}
+ -t 0.3168112 -s 0 -d 1 -p tcp -e 1500 -c 0 -i 37 -a 0 -x {2.0 1.0 15 ------- null}
- -t 0.3168112 -s 0 -d 1 -p tcp -e 1500 -c 0 -i 37 -a 0 -x {2.0 1.0 15 ------- null}
h -t 0.3168112 -s 0 -d 1 -p tcp -e 1500 -c 0 -i 37 -a 0 -x {2.0 1.0 -1 ------- null}
r -t 0.3200704 -s 0 -d 5 -p ack -e 40 -c 3 -i 17 -a 3 -x {1.3 5.0 0 ------- null}
+ -t 0.3200704 -s 5 -d 0 -p tcp -e 1500 -c 3 -i 39 -a 3 -x {5.0 1.3 1 ------- null}
- -t 0.3200704 -s 5 -d 0 -p tcp -e 1500 -c 3 -i 39 -a 3 -x {5.0 1.3 1 ------- null}
h -t 0.3200704 -s 5 -d 0 -p tcp -e 1500 -c 3 -i 39 -a 3 -x {5.0 1.3 -1 ------- null}
+ -t 0.3200704 -s 5 -d 0 -p tcp -e 1500 -c 3 -i 40 -a 3 -x {5.0 1.3 2 ------- null}
- -t 0.3201904 -s 5 -d 0 -p tcp -e 1500 -c 3 -i 40 -a 3 -x {5.0 1.3 2 ------- null}
h -t 0.3201904 -s 5 -d 0 -p tcp -e 1500 -c 3 -i 40 -a 3 -x {5.0 1.3 -1 ------- null}
r -t 0.3204112 -s 2 -d 0 -p tcp -e 1500 -c 0 -i 38 -a 0 -x {2.0 1.0 16 ------- null}
+ -t 0.3204112 -s 0 -d 1 -p tcp -e 1500 -c 0 -i 38 -a 0 -x {2.0 1.0 16 ------- null}
- -t 0.3204112 -s 0 -d 1 -p tcp -e 1500 -c 0 -i 38 -a 0 -x {2.0 1.0 16 ------- null}
h -t 0.3204112 -s 0 -d 1 -p tcp -e 1500 -c 0 -i 38 -a 0 -x {2.0 1.0 -1 ------- null}
r -t 0.3268112 -s 0 -d 1 -p tcp -e 1500 -c 0 -i 36 -a 0 -x {2.0 1.0 14 ------- null}
+ -t 0.3268112 -s 1 -d 0 -p ack -e 40 -c 0 -i 41 -a 0 -x {1.0 2.0 14 ------- null}
- -t 0.3268112 -s 1 -d 0 -p ack -e 40 -c 0 -i 41 -a 0 -x {1.0 2.0 14 ------- null}
h -t 0.3268112 -s 1 -d 0 -p ack -e 40 -c 0 -i 41 -a 0 -x {1.0 2.0 -1 ------- null}
r -t 0.3280112 -s 0 -d 1 -p tcp -e 1500 -c 0 -i 37 -a 0 -x {2.0 1.0 15 ------- null}
+ -t 0.3280112 -s 1 -d 0 -p ack -e 40 -c 0 -i 42 -a 0 -x {1.0 2.0 15 ------- null}
- -t 0.3280112 -s 1 -d 0 -p ack -e 40 -c 0 -i 42 -a 0 -x {1.0 2.0 15 ------- null}
h -t 0.3280112 -s 1 -d 0 -p ack -e 40 -c 0 -i 42 -a 0 -x {1.0 2.0 -1 ------- null}
r -t 0.3301904 -s 4 -d 0 -p tcp -e 1500 -c 2 -i 28 -a 2 -x {4.0 1.2 1 ------- null}
+ -t 0.3301904 -s 0 -d 1 -p tcp -e 1500 -c 2 -i 28 -a 2 -x {4.0 1.2 1 ------- null}
- -t 0.3301904 -s 0 -d 1 -p tcp -e 1500 -c 2 -i 28 -a 2 -x {4.0 1.2 1 ------- null}
h -t 0.3301904 -s 0 -d 1 -p tcp -e 1500 -c 2 -i 28 -a 2 -x {4.0 1.2 -1 ------- null}
r -t 0.3303104 -s 4 -d 0 -p tcp -e 1500 -c 2 -i 29 -a 2 -x {4.0 1.2 2 ------- null}
+ -t 0.3303104 -s 0 -d 1 -p tcp -e 1500 -c 2 -i 29 -a 2 -x {4.0 1.2 2 ------- null}
- -t 0.3313904 -s 0 -d 1 -p tcp -e 1500 -c 2 -i 29 -a 2 -x {4.0 1.2 2 ------- null}
h -t 0.3313904 -s 0 -d 1 -p tcp -e 1500 -c 2 -i 29 -a 2 -x {4.0 1.2 -1 ------- null}
r -t 0.3316112 -s 0 -d 1 -p tcp -e 1500 -c 0 -i 38 -a 0 -x {2.0 1.0 16 ------- null}
+ -t 0.3316112 -s 1 -d 0 -p ack -e 40 -c 0 -i 43 -a 0 -x {1.0 2.0 16 ------- null}
- -t 0.3316112 -s 1 -d 0 -p ack -e 40 -c 0 -i 43 -a 0 -x {1.0 2.0 16 ------- null}
h -t 0.3316112 -s 1 -d 0 -p ack -e 40 -c 0 -i 43 -a 0 -x {1.0 2.0 -1 ------- null}
r -t 0.3368432 -s 1 -d 0 -p ack -e 40 -c 0 -i 41 -a 0 -x {1.0 2.0 14 ------- null}
+ -t 0.3368432 -s 0 -d 2 -p ack -e 40 -c 0 -i 41 -a 0 -x {1.0 2.0 14 ------- null}
- -t 0.3368432 -s 0 -d 2 -p ack -e 40 -c 0 -i 41 -a 0 -x {1.0 2.0 14 ------- null}
h -t 0.3368432 -s 0 -d 2 -p ack -e 40 -c 0 -i 41 -a 0 -x {1.0 2.0 -1 ------- null}
r -t 0.3380432 -s 1 -d 0 -p ack -e 40 -c 0 -i 42 -a 0 -x {1.0 2.0 15 ------- null}
+ -t 0.3380432 -s 0 -d 2 -p ack -e 40 -c 0 -i 42 -a 0 -x {1.0 2.0 15 ------- null}
- -t 0.3380432 -s 0 -d 2 -p ack -e 40 -c 0 -i 42 -a 0 -x {1.0 2.0 15 ------- null}
h -t 0.3380432 -s 0 -d 2 -p ack -e 40 -c 0 -i 42 -a 0 -x {1.0 2.0 -1 ------- null}
r -t 0.3413904 -s 0 -d 1 -p tcp -e 1500 -c 2 -i 28 -a 2 -x {4.0 1.2 1 ------- null}
+ -t 0.3413904 -s 1 -d 0 -p ack -e 40 -c 2 -i 44 -a 2 -x {1.2 4.0 1 ------- null}
- -t 0.3413904 -s 1 -d 0 -p ack -e 40 -c 2 -i 44 -a 2 -x {1.2 4.0 1 ------- null}
h -t 0.3413904 -s 1 -d 0 -p ack -e 40 -c 2 -i 44 -a 2 -x {1.2 4.0 -1 ------- null}
r -t 0.3416432 -s 1 -d 0 -p ack -e 40 -c 0 -i 43 -a 0 -x {1.0 2.0 16 ------- null}
+ -t 0.3416432 -s 0 -d 2 -p ack -e 40 -c 0 -i 43 -a 0 -x {1.0 2.0 16 ------- null}
- -t 0.3416432 -s 0 -d 2 -p ack -e 40 -c 0 -i 43 -a 0 -x {1.0 2.0 16 ------- null}
h -t 0.3416432 -s 0 -d 2 -p ack -e 40 -c 0 -i 43 -a 0 -x {1.0 2.0 -1 ------- null}
r -t 0.3425904 -s 0 -d 1 -p tcp -e 1500 -c 2 -i 29 -a 2 -x {4.0 1.2 2 ------- null}
+ -t 0.3425904 -s 1 -d 0 -p ack -e 40 -c 2 -i 45 -a 2 -x {1.2 4.0 2 ------- null}
- -t 0.3425904 -s 1 -d 0 -p ack -e 40 -c 2 -i 45 -a 2 -x {1.2 4.0 2 ------- null}
h -t 0.3425904 -s 1 -d 0 -p ack -e 40 -c 2 -i 45 -a 2 -x {1.2 4.0 -1 ------- null}
r -t 0.3468464 -s 0 -d 2 -p ack -e 40 -c 0 -i 41 -a 0 -x {1.0 2.0 14 ------- null}
+ -t 0.3468464 -s 2 -d 0 -p tcp -e 1500 -c 0 -i 46 -a 0 -x {2.0 1.0 17 ------- null}
- -t 0.3468464 -s 2 -d 0 -p tcp -e 1500 -c 0 -i 46 -a 0 -x {2.0 1.0 17 ------- null}
h -t 0.3468464 -s 2 -d 0 -p tcp -e 1500 -c 0 -i 46 -a 0 -x {2.0 1.0 -1 ------- null}
r -t 0.3480464 -s 0 -d 2 -p ack -e 40 -c 0 -i 42 -a 0 -x {1.0 2.0 15 ------- null}
+ -t 0.3480464 -s 2 -d 0 -p tcp -e 1500 -c 0 -i 47 -a 0 -x {2.0 1.0 18 ------- null}
- -t 0.3480464 -s 2 -d 0 -p tcp -e 1500 -c 0 -i 47 -a 0 -x {2.0 1.0 18 ------- null}
h -t 0.3480464 -s 2 -d 0 -p tcp -e 1500 -c 0 -i 47 -a 0 -x {2.0 1.0 -1 ------- null}
+ -t 0.3480464 -s 2 -d 0 -p tcp -e 1500 -c 0 -i 48 -a 0 -x {2.0 1.0 19 ------- null}
- -t 0.3481664 -s 2 -d 0 -p tcp -e 1500 -c 0 -i 48 -a 0 -x {2.0 1.0 19 ------- null}
h -t 0.3481664 -s 2 -d 0 -p tcp -e 1500 -c 0 -i 48 -a 0 -x {2.0 1.0 -1 ------- null}
r -t 0.3514224 -s 1 -d 0 -p ack -e 40 -c 2 -i 44 -a 2 -x {1.2 4.0 1 ------- null}
+ -t 0.3514224 -s 0 -d 4 -p ack -e 40 -c 2 -i 44 -a 2 -x {1.2 4.0 1 ------- null}
- -t 0.3514224 -s 0 -d 4 -p ack -e 40 -c 2 -i 44 -a 2 -x {1.2 4.0 1 ------- null}